 Entering Gaussian System, Link 0=g16
 Input=co.com
 Output=co.log
 Initial command:
 /home/linux-pohl-v2/Escritorio/Gaussian/g16/l1.exe "/tmp/Gau-24768.inp" -scrdir="/tmp/"
 Entering Link 1 = /home/linux-pohl-v2/Escritorio/Gaussian/g16/l1.exe PID=     24770.
  
 Copyright (c) 1988-2017, Gaussian, Inc.  All Rights Reserved.
  
 This is part of the Gaussian(R) 16 program.  It is based on
 the Gaussian(R) 09 system (copyright 2009, Gaussian, Inc.),
 the Gaussian(R) 03 system (copyright 2003, Gaussian, Inc.),
 the Gaussian(R) 98 system (copyright 1998, Gaussian, Inc.),
 the Gaussian(R) 94 system (copyright 1995, Gaussian, Inc.),
 the Gaussian 92(TM) system (copyright 1992, Gaussian, Inc.),
 the Gaussian 90(TM) system (copyright 1990, Gaussian, Inc.),
 the Gaussian 88(TM) system (copyright 1988, Gaussian, Inc.),
 the Gaussian 86(TM) system (copyright 1986, Carnegie Mellon
 University), and the Gaussian 82(TM) system (copyright 1983,
 Carnegie Mellon University). Gaussian is a federally registered
 trademark of Gaussian, Inc.
  
 This software contains proprietary and confidential information,
 including trade secrets, belonging to Gaussian, Inc.
  
 This software is provided under written license and may be
 used, copied, transmitted, or stored only in accord with that
 written license.
  
 The following legend is applicable only to US Government
 contracts under FAR:
  
                    RESTRICTED RIGHTS LEGEND
  
 Use, reproduction and disclosure by the US Government is
 subject to restrictions as set forth in subparagraphs (a)
 and (c) of the Commercial Computer Software - Restricted
 Rights clause in FAR 52.227-19.
  
 Gaussian, Inc.
 340 Quinnipiac St., Bldg. 40, Wallingford CT 06492
  
  
 ---------------------------------------------------------------
 Warning -- This program may not be used in any manner that
 competes with the business of Gaussian, Inc. or will provide
 assistance to any competitor of Gaussian, Inc.  The licensee
 of this program is prohibited from giving any competitor of
 Gaussian, Inc. access to this program.  By using this program,
 the user acknowledges that Gaussian, Inc. is engaged in the
 business of creating and licensing software in the field of
 computational chemistry and represents and warrants to the
 licensee that it is not a competitor of Gaussian, Inc. and that
 it will not use this program in any manner prohibited above.
 ---------------------------------------------------------------
  

 Cite this work as:
 Gaussian 16, Revision B.01,
 M. J. Frisch, G. W. Trucks, H. B. Schlegel, G. E. Scuseria, 
 M. A. Robb, J. R. Cheeseman, G. Scalmani, V. Barone, 
 G. A. Petersson, H. Nakatsuji, X. Li, M. Caricato, A. V. Marenich, 
 J. Bloino, B. G. Janesko, R. Gomperts, B. Mennucci, H. P. Hratchian, 
 J. V. Ortiz, A. F. Izmaylov, J. L. Sonnenberg, D. Williams-Young, 
 F. Ding, F. Lipparini, F. Egidi, J. Goings, B. Peng, A. Petrone, 
 T. Henderson, D. Ranasinghe, V. G. Zakrzewski, J. Gao, N. Rega, 
 G. Zheng, W. Liang, M. Hada, M. Ehara, K. Toyota, R. Fukuda, 
 J. Hasegawa, M. Ishida, T. Nakajima, Y. Honda, O. Kitao, H. Nakai, 
 T. Vreven, K. Throssell, J. A. Montgomery, Jr., J. E. Peralta, 
 F. Ogliaro, M. J. Bearpark, J. J. Heyd, E. N. Brothers, K. N. Kudin, 
 V. N. Staroverov, T. A. Keith, R. Kobayashi, J. Normand, 
 K. Raghavachari, A. P. Rendell, J. C. Burant, S. S. Iyengar, 
 J. Tomasi, M. Cossi, J. M. Millam, M. Klene, C. Adamo, R. Cammi, 
 J. W. Ochterski, R. L. Martin, K. Morokuma, O. Farkas, 
 J. B. Foresman, and D. J. Fox, Gaussian, Inc., Wallingford CT, 2016.
 
 ******************************************
 Gaussian 16:  EM64L-G16RevB.01 20-Dec-2017
                12-Jun-2023 
 ******************************************
 %nprocshared=4
 Will use up to    4 processors via shared memory.
 ----------------------------------------------------------------------
 #T HF/6-311G # Opt( MaxCycle=10) # Gfinput IOP(6/7=3) Pop=full Density
  Test # Units(Ang,Deg)
 ----------------------------------------------------------------------
 ----------------------------------
 Input file generated by gabedit...
 ----------------------------------
 Symbolic Z-matrix:
 Charge =  0 Multiplicity = 1
 C                    0    -3.7015    0.5141   -11.90649 
 O                    0     0.37015   0.47297  -11.7401 
 
 Add virtual bond connecting atoms O2         and C1         Dist= 7.70D+00.

 GradGradGradGradGradGradGradGradGradGradGradGradGradGradGradGradGradGrad
 Initialization pass.
                           ----------------------------
                           !    Initial Parameters    !
                           ! (Angstroms and Degrees)  !
 --------------------------                            --------------------------
 ! Name  Definition              Value          Derivative Info.                !
 --------------------------------------------------------------------------------
 ! R1    R(1,2)                  4.0753         estimate D2E/DX2                !
 --------------------------------------------------------------------------------
 Number of steps in this run=     10 maximum allowed number of steps=    100.
 GradGradGradGradGradGradGradGradGradGradGradGradGradGradGradGradGradGrad

 Framework group  C*V[C*(CO)]
 Deg. of freedom     1
                         Standard orientation:                         
 ---------------------------------------------------------------------
 Center     Atomic      Atomic             Coordinates (Angstroms)
 Number     Number       Type             X           Y           Z
 ---------------------------------------------------------------------
      1          6           0        0.000000    0.000000   -2.328717
      2          8           0       -0.000000   -0.000000    1.746538
 ---------------------------------------------------------------------
 Rotational constants (GHZ):           0.0000000           4.4383710           4.4383710
 AO basis set in the form of general basis input (Overlap normalization):
      1 0
 S   6 1.00       0.000000000000
      0.4563240000D+04  0.1966650249D-02
      0.6820240000D+03  0.1523060193D-01
      0.1549730000D+03  0.7612690966D-01
      0.4445530000D+02  0.2608010331D+00
      0.1302900000D+02  0.6164620782D+00
      0.1827730000D+01  0.2210060280D+00
 SP   3 1.00       0.000000000000
      0.2096420000D+02  0.1146600807D+00  0.4024869267D-01
      0.4803310000D+01  0.9199996477D+00  0.2375939567D+00
      0.1459330000D+01 -0.3030682134D-02  0.8158538515D+00
 SP   1 1.00       0.000000000000
      0.4834560000D+00  0.1000000000D+01  0.1000000000D+01
 SP   1 1.00       0.000000000000
      0.1455850000D+00  0.1000000000D+01  0.1000000000D+01
 ****
      2 0
 S   6 1.00       0.000000000000
      0.8588500000D+04  0.1895150083D-02
      0.1297230000D+04  0.1438590063D-01
      0.2992960000D+03  0.7073200310D-01
      0.8737710000D+02  0.2400010105D+00
      0.2567890000D+02  0.5947970261D+00
      0.3740040000D+01  0.2808020123D+00
 SP   3 1.00       0.000000000000
      0.4211750000D+02  0.1138890124D+00  0.3651139738D-01
      0.9628370000D+01  0.9208111006D+00  0.2371529830D+00
      0.2853320000D+01 -0.3274470358D-02  0.8197019412D+00
 SP   1 1.00       0.000000000000
      0.9056610000D+00  0.1000000000D+01  0.1000000000D+01
 SP   1 1.00       0.000000000000
      0.2556110000D+00  0.1000000000D+01  0.1000000000D+01
 ****

    26 basis functions,    52 primitive gaussians,    26 cartesian basis functions
     7 alpha electrons        7 beta electrons
       nuclear repulsion energy         6.2328630532 Hartrees.
 NAtoms=    2 NActive=    2 NUniq=    2 SFac= 1.00D+00 NAtFMM=   60 NAOKFM=F Big=F
 ExpMin= 1.46D-01 ExpMax= 8.59D+03 ExpMxC= 1.30D+03 IAcc=3 IRadAn=         5 AccDes= 0.00D+00
 Harris functional with IExCor=  205 and IRadAn=       5 diagonalized for initial guess.
 HarFok:  IExCor=  205 AccDes= 0.00D+00 IRadAn=         5 IDoV= 1 UseB2=F ITyADJ=14
 ICtDFT=  3500011 ScaDFX=  1.000000  1.000000  1.000000  1.000000
 FoFCou: FMM=F IPFlag=           0 FMFlag=      100000 FMFlg1=           0
         NFxFlg=           0 DoJE=T BraDBF=F KetDBF=T FulRan=T
         wScrn=  0.000000 ICntrl=       500 IOpCl=  0 I1Cent=   200000004 NGrid=           0
         NMat0=    1 NMatS0=      1 NMatT0=    0 NMatD0=    1 NMtDS0=    0 NMtDT0=    0
 Petite list used in FoFCou.
 Initial guess orbital symmetries:
       Occupied  (SG) (SG) (SG) (SG) (SG) (PI) (PI)
       Virtual   (SG) (PI) (PI) (SG) (PI) (PI) (SG) (PI) (PI) (SG)
                 (SG) (PI) (PI) (SG) (PI) (PI) (SG) (SG) (SG)
 The electronic state of the initial guess is 1-SG.
 Rare condition: small coef for last iteration:  0.000D+00
 SCF Done:  E(RHF) =  -112.277915048     A.U. after   21 cycles
            NFock= 21  Conv=0.14D-08     -V/T= 1.9995

 **********************************************************************

            Population analysis using the SCF Density.

 **********************************************************************

 Orbital symmetries:
       Occupied  (SG) (SG) (SG) (SG) (PI) (PI) (SG)
       Virtual   (SG) (PI) (PI) (SG) (PI) (PI) (SG) (PI) (PI) (SG)
                 (SG) (PI) (PI) (SG) (SG) (PI) (PI) (SG) (SG)
 The electronic state is 1-SG.
 Alpha  occ. eigenvalues --  -20.68697 -11.35945  -1.24710  -0.72368  -0.57199
 Alpha  occ. eigenvalues --   -0.57199  -0.35743
 Alpha virt. eigenvalues --    0.00844   0.04394   0.04394   0.58354   0.61589
 Alpha virt. eigenvalues --    0.61589   0.61728   0.95916   0.95916   1.00823
 Alpha virt. eigenvalues --    1.05824   2.93055   2.93055   2.95942   5.19053
 Alpha virt. eigenvalues --    5.21787   5.21787  24.20236  51.19420
     Molecular Orbital Coefficients:
                           1         2         3         4         5
                           O         O         O         O         O
     Eigenvalues --   -20.68697 -11.35945  -1.24710  -0.72368  -0.57199
   1 1   C  1S         -0.00000   0.56388  -0.00007  -0.12293   0.00000
   2        2S          0.00000   0.46712  -0.00009  -0.20834   0.00000
   3        2PX         0.00000   0.00000   0.00000   0.00000   0.00000
   4        2PY         0.00000   0.00000   0.00000   0.00000   0.00021
   5        2PZ         0.00000   0.00005   0.00023   0.00060   0.00000
   6        3S         -0.00000   0.00120   0.00003   0.59950   0.00000
   7        3PX         0.00000   0.00000   0.00000   0.00000   0.00000
   8        3PY         0.00000   0.00000   0.00000   0.00000  -0.00056
   9        3PZ         0.00000  -0.00002   0.00012   0.00108   0.00000
  10        4S          0.00000   0.00045   0.00082   0.51837   0.00000
  11        4PX         0.00000   0.00000   0.00000   0.00000   0.00000
  12        4PY         0.00000   0.00000   0.00000   0.00000   0.00163
  13        4PZ         0.00000   0.00001   0.00079   0.00194   0.00000
  14 2   O  1S          0.55157   0.00000  -0.12694   0.00030   0.00000
  15        2S          0.47188   0.00000  -0.21380   0.00054   0.00000
  16        2PX         0.00000   0.00000   0.00000   0.00000   0.00000
  17        2PY         0.00000   0.00000   0.00000   0.00000   0.31294
  18        2PZ        -0.00001  -0.00000   0.00042  -0.00053   0.00000
  19        3S          0.00467  -0.00000   0.64249  -0.00215   0.00000
  20        3PX         0.00000   0.00000   0.00000   0.00000   0.00000
  21        3PY         0.00000   0.00000   0.00000   0.00000   0.47055
  22        3PZ         0.00001   0.00000   0.00065  -0.00014   0.00000
  23        4S         -0.00007   0.00000   0.48151   0.00001   0.00000
  24        4PX         0.00000   0.00000   0.00000   0.00000   0.00000
  25        4PY         0.00000   0.00000   0.00000   0.00000   0.43602
  26        4PZ        -0.00000  -0.00000   0.00133  -0.00242   0.00000
                           6         7         8         9        10
                           O         O         V         V         V
     Eigenvalues --    -0.57199  -0.35743   0.00844   0.04394   0.04394
   1 1   C  1S          0.00000   0.00057  -0.00199   0.00000   0.00000
   2        2S          0.00000   0.00105  -0.00415   0.00000   0.00000
   3        2PX         0.00021   0.00000   0.00000   0.00000   0.21942
   4        2PY         0.00000   0.00000   0.00000   0.21942   0.00000
   5        2PZ         0.00000   0.28391   0.01178   0.00000   0.00000
   6        3S          0.00000  -0.00445   0.02201   0.00000   0.00000
   7        3PX        -0.00056   0.00000   0.00000   0.00000   0.29817
   8        3PY         0.00000   0.00000   0.00000   0.29817   0.00000
   9        3PZ         0.00000   0.43760   0.03692   0.00000   0.00000
  10        4S          0.00000   0.00070  -0.01416   0.00000   0.00000
  11        4PX         0.00163   0.00000   0.00000   0.00000   0.67321
  12        4PY         0.00000   0.00000   0.00000   0.67321   0.00000
  13        4PZ         0.00000   0.48335  -0.01253   0.00000   0.00000
  14 2   O  1S          0.00000   0.00089   0.00036   0.00000   0.00000
  15        2S          0.00000   0.00165   0.00066   0.00000   0.00000
  16        2PX         0.31294   0.00000   0.00000   0.00000  -0.00100
  17        2PY         0.00000   0.00000   0.00000  -0.00100   0.00000
  18        2PZ         0.00000  -0.00460   0.25598   0.00000   0.00000
  19        3S          0.00000  -0.00733  -0.00286   0.00000   0.00000
  20        3PX         0.47055   0.00000   0.00000   0.00000  -0.00268
  21        3PY         0.00000   0.00000   0.00000  -0.00268   0.00000
  22        3PZ         0.00000  -0.00418   0.36882   0.00000   0.00000
  23        4S          0.00000   0.00181   0.00070   0.00000   0.00000
  24        4PX         0.43602   0.00000   0.00000   0.00000   0.00114
  25        4PY         0.00000   0.00000   0.00000   0.00114   0.00000
  26        4PZ         0.00000  -0.01593   0.59044   0.00000   0.00000
                          11        12        13        14        15
                           V         V         V         V         V
     Eigenvalues --     0.58354   0.61589   0.61589   0.61728   0.95916
   1 1   C  1S          0.01082   0.00000   0.00000  -0.11560   0.00000
   2        2S          0.02342   0.00000   0.00000  -0.24982   0.00000
   3        2PX         0.00000   0.00000  -0.24245   0.00000   0.00000
   4        2PY         0.00000  -0.24245   0.00000   0.00000   0.00561
   5        2PZ        -0.21697   0.00000   0.00000  -0.02202   0.00000
   6        3S         -0.15115   0.00000   0.00000   1.62318   0.00000
   7        3PX         0.00000   0.00000  -0.98673   0.00000   0.00000
   8        3PY         0.00000  -0.98673   0.00000   0.00000   0.01487
   9        3PZ        -0.88650   0.00000   0.00000  -0.08911   0.00000
  10        4S          0.14114   0.00000   0.00000  -1.52753   0.00000
  11        4PX         0.00000   0.00000   1.09023   0.00000   0.00000
  12        4PY         0.00000   1.09023   0.00000   0.00000  -0.02259
  13        4PZ         1.16472   0.00000   0.00000   0.12020   0.00000
  14 2   O  1S          0.00685   0.00000   0.00000  -0.00233   0.00000
  15        2S          0.01381   0.00000   0.00000  -0.00473   0.00000
  16        2PX         0.00000   0.00000  -0.00368   0.00000   0.00000
  17        2PY         0.00000  -0.00368   0.00000   0.00000  -0.23581
  18        2PZ         0.03289   0.00000   0.00000  -0.01246   0.00000
  19        3S         -0.08225   0.00000   0.00000   0.02872   0.00000
  20        3PX         0.00000   0.00000  -0.01331   0.00000   0.00000
  21        3PY         0.00000  -0.01331   0.00000   0.00000  -0.80493
  22        3PZ         0.10322   0.00000   0.00000  -0.04160   0.00000
  23        4S          0.06825   0.00000   0.00000  -0.02496   0.00000
  24        4PX         0.00000   0.00000   0.01559   0.00000   0.00000
  25        4PY         0.00000   0.01559   0.00000   0.00000   1.15466
  26        4PZ        -0.07001   0.00000   0.00000   0.03265   0.00000
                          16        17        18        19        20
                           V         V         V         V         V
     Eigenvalues --     0.95916   1.00823   1.05824   2.93055   2.93055
   1 1   C  1S          0.00000   0.00627   0.00419   0.00000   0.00000
   2        2S          0.00000   0.01318   0.00874   0.00000   0.00000
   3        2PX         0.00561   0.00000   0.00000  -1.32014   0.00000
   4        2PY         0.00000   0.00000   0.00000   0.00000  -1.32014
   5        2PZ         0.00000  -0.03461  -0.02758   0.00000   0.00000
   6        3S          0.00000  -0.09177  -0.06117   0.00000   0.00000
   7        3PX         0.01487   0.00000   0.00000   1.41735   0.00000
   8        3PY         0.00000   0.00000   0.00000   0.00000   1.41735
   9        3PZ         0.00000  -0.08185  -0.05792   0.00000   0.00000
  10        4S          0.00000   0.09304   0.06219   0.00000   0.00000
  11        4PX        -0.02259   0.00000   0.00000  -0.55520   0.00000
  12        4PY         0.00000   0.00000   0.00000   0.00000  -0.55520
  13        4PZ         0.00000   0.14321   0.10499   0.00000   0.00000
  14 2   O  1S          0.00000   0.01736  -0.11508   0.00000   0.00000
  15        2S          0.00000   0.03547  -0.23516   0.00000   0.00000
  16        2PX        -0.23581   0.00000   0.00000  -0.00220   0.00000
  17        2PY         0.00000   0.00000   0.00000   0.00000  -0.00220
  18        2PZ         0.00000  -0.25632  -0.03671   0.00000   0.00000
  19        3S          0.00000  -0.22834   1.52229   0.00000   0.00000
  20        3PX        -0.80493   0.00000   0.00000  -0.00076   0.00000
  21        3PY         0.00000   0.00000   0.00000   0.00000  -0.00076
  22        3PZ         0.00000  -0.86873  -0.12343   0.00000   0.00000
  23        4S          0.00000   0.21786  -1.46473   0.00000   0.00000
  24        4PX         1.15466   0.00000   0.00000   0.00412   0.00000
  25        4PY         0.00000   0.00000   0.00000   0.00000   0.00412
  26        4PZ         0.00000   1.07438   0.15809   0.00000   0.00000
                          21        22        23        24        25
                           V         V         V         V         V
     Eigenvalues --     2.95942   5.19053   5.21787   5.21787  24.20236
   1 1   C  1S         -0.00005  -0.00122   0.00000   0.00000  -2.02320
   2        2S         -0.00017  -0.00116   0.00000   0.00000   2.14961
   3        2PX         0.00000   0.00000   0.00263   0.00000   0.00000
   4        2PY         0.00000   0.00000   0.00000   0.00263   0.00000
   5        2PZ        -1.31141  -0.02294   0.00000   0.00000   0.00008
   6        3S          0.00148   0.01297   0.00000   0.00000  -0.34158
   7        3PX         0.00000   0.00000  -0.00491   0.00000   0.00000
   8        3PY         0.00000   0.00000   0.00000  -0.00491   0.00000
   9        3PZ         1.44209   0.04322   0.00000   0.00000  -0.00022
  10        4S         -0.00183  -0.01514   0.00000   0.00000   0.18556
  11        4PX         0.00000   0.00000   0.00446   0.00000   0.00000
  12        4PY         0.00000   0.00000   0.00000   0.00446   0.00000
  13        4PZ        -0.56755  -0.03966   0.00000   0.00000   0.00028
  14 2   O  1S          0.00171   0.00012   0.00000   0.00000  -0.00022
  15        2S          0.00331   0.00020   0.00000   0.00000  -0.00001
  16        2PX         0.00000   0.00000  -1.26635   0.00000   0.00000
  17        2PY         0.00000   0.00000   0.00000  -1.26635   0.00000
  18        2PZ         0.01884  -1.27419   0.00000   0.00000   0.00118
  19        3S         -0.02518  -0.00167   0.00000   0.00000   0.00131
  20        3PX         0.00000   0.00000   1.37925   0.00000   0.00000
  21        3PY         0.00000   0.00000   0.00000   1.37925   0.00000
  22        3PZ         0.00782   1.36300   0.00000   0.00000  -0.00294
  23        4S          0.02911   0.00195   0.00000   0.00000  -0.00168
  24        4PX         0.00000   0.00000  -0.52942   0.00000   0.00000
  25        4PY         0.00000   0.00000   0.00000  -0.52942   0.00000
  26        4PZ        -0.03731  -0.52582   0.00000   0.00000   0.00362
                          26
                           V
     Eigenvalues --    51.19420
   1 1   C  1S          0.00023
   2        2S         -0.00041
   3        2PX         0.00000
   4        2PY         0.00000
   5        2PZ        -0.00090
   6        3S          0.00093
   7        3PX         0.00000
   8        3PY         0.00000
   9        3PZ         0.00237
  10        4S         -0.00109
  11        4PX         0.00000
  12        4PY         0.00000
  13        4PZ        -0.00278
  14 2   O  1S         -2.24580
  15        2S          2.32249
  16        2PX         0.00000
  17        2PY         0.00000
  18        2PZ        -0.00006
  19        3S         -0.20125
  20        3PX         0.00000
  21        3PY         0.00000
  22        3PZ         0.00015
  23        4S          0.12125
  24        4PX         0.00000
  25        4PY         0.00000
  26        4PZ        -0.00020
     Density Matrix:
                           1         2         3         4         5
   1 1   C  1S          0.66614
   2        2S          0.57802   0.52322
   3        2PX        -0.00000  -0.00000   0.00000
   4        2PY        -0.00000  -0.00000   0.00000   0.00000
   5        2PZ         0.00023   0.00039  -0.00000  -0.00000   0.16122
   6        3S         -0.14604  -0.24869   0.00000   0.00000  -0.00181
   7        3PX        -0.00000  -0.00000  -0.00000  -0.00000  -0.00000
   8        3PY        -0.00000  -0.00000  -0.00000  -0.00000  -0.00000
   9        3PZ         0.00021   0.00045  -0.00000  -0.00000   0.24848
  10        4S         -0.12694  -0.21558  -0.00000  -0.00000   0.00102
  11        4PX        -0.00000  -0.00000   0.00000   0.00000  -0.00000
  12        4PY        -0.00000  -0.00000   0.00000   0.00000  -0.00000
  13        4PZ         0.00008   0.00021  -0.00000  -0.00000   0.27446
  14 2   O  1S         -0.00006  -0.00010  -0.00000  -0.00000   0.00045
  15        2S         -0.00010  -0.00018  -0.00000  -0.00000   0.00084
  16        2PX        -0.00000  -0.00000   0.00013   0.00000   0.00000
  17        2PY        -0.00000  -0.00000   0.00000   0.00013   0.00000
  18        2PZ         0.00012   0.00021   0.00000   0.00000  -0.00261
  19        3S          0.00043   0.00076   0.00000   0.00000  -0.00387
  20        3PX        -0.00000  -0.00000   0.00019   0.00000   0.00000
  21        3PY        -0.00000  -0.00000   0.00000   0.00019   0.00000
  22        3PZ         0.00003   0.00005   0.00000   0.00000  -0.00237
  23        4S         -0.00007  -0.00009  -0.00000  -0.00000   0.00125
  24        4PX        -0.00000  -0.00000   0.00018   0.00000   0.00000
  25        4PY        -0.00000  -0.00000   0.00000   0.00018   0.00000
  26        4PZ         0.00057   0.00097   0.00000   0.00000  -0.00905
                           6         7         8         9        10
   6        3S          0.71884
   7        3PX         0.00000   0.00000
   8        3PY         0.00000   0.00000   0.00000
   9        3PZ        -0.00260  -0.00000  -0.00000   0.38298
  10        4S          0.62151  -0.00000  -0.00000   0.00173   0.53741
  11        4PX         0.00000  -0.00000  -0.00000  -0.00000  -0.00000
  12        4PY         0.00000  -0.00000  -0.00000  -0.00000  -0.00000
  13        4PZ        -0.00197  -0.00000  -0.00000   0.42303   0.00269
  14 2   O  1S          0.00034  -0.00000  -0.00000   0.00075   0.00011
  15        2S          0.00062  -0.00000  -0.00000   0.00139   0.00021
  16        2PX         0.00000  -0.00035  -0.00000   0.00000   0.00000
  17        2PY         0.00000  -0.00000  -0.00035   0.00000   0.00000
  18        2PZ        -0.00059   0.00000   0.00000  -0.00403  -0.00055
  19        3S         -0.00247   0.00000   0.00000  -0.00626  -0.00119
  20        3PX         0.00000  -0.00052  -0.00000   0.00000   0.00000
  21        3PY         0.00000  -0.00000  -0.00052   0.00000   0.00000
  22        3PZ        -0.00013   0.00000   0.00000  -0.00366  -0.00015
  23        4S          0.00003  -0.00000  -0.00000   0.00170   0.00080
  24        4PX         0.00000  -0.00049  -0.00000   0.00000   0.00000
  25        4PY         0.00000  -0.00000  -0.00049   0.00000   0.00000
  26        4PZ        -0.00276   0.00000   0.00000  -0.01395  -0.00253
                          11        12        13        14        15
  11        4PX         0.00001
  12        4PY         0.00000   0.00001
  13        4PZ        -0.00000  -0.00000   0.46726
  14 2   O  1S         -0.00000  -0.00000   0.00066   0.64068
  15        2S         -0.00000  -0.00000   0.00125   0.57483   0.53677
  16        2PX         0.00102   0.00000   0.00000   0.00000   0.00000
  17        2PY         0.00000   0.00102   0.00000   0.00000   0.00000
  18        2PZ         0.00000   0.00000  -0.00445  -0.00013  -0.00021
  19        3S          0.00000   0.00000  -0.00607  -0.15798  -0.27034
  20        3PX         0.00153   0.00000   0.00000   0.00000   0.00000
  21        3PY         0.00000   0.00153   0.00000   0.00000   0.00000
  22        3PZ         0.00000   0.00000  -0.00404  -0.00016  -0.00028
  23        4S         -0.00000  -0.00000   0.00252  -0.12232  -0.20595
  24        4PX         0.00142   0.00000   0.00000   0.00000   0.00000
  25        4PY         0.00000   0.00142   0.00000   0.00000   0.00000
  26        4PZ         0.00000   0.00000  -0.01541  -0.00037  -0.00063
                          16        17        18        19        20
  16        2PX         0.19586
  17        2PY         0.00000   0.19586
  18        2PZ         0.00000  -0.00000   0.00004
  19        3S         -0.00000  -0.00000   0.00062   0.82575
  20        3PX         0.29450   0.00000   0.00000  -0.00000   0.44283
  21        3PY         0.00000   0.29450  -0.00000  -0.00000   0.00000
  22        3PZ         0.00000  -0.00000   0.00004   0.00089   0.00000
  23        4S         -0.00000  -0.00000   0.00039   0.61870  -0.00000
  24        4PX         0.27290   0.00000   0.00000  -0.00000   0.41034
  25        4PY         0.00000   0.27290  -0.00000  -0.00000   0.00000
  26        4PZ         0.00000  -0.00000   0.00015   0.00196   0.00000
                          21        22        23        24        25
  21        3PY         0.44283
  22        3PZ        -0.00000   0.00004
  23        4S         -0.00000   0.00061   0.46370
  24        4PX         0.00000   0.00000  -0.00000   0.38023
  25        4PY         0.41034  -0.00000  -0.00000   0.00000   0.38023
  26        4PZ        -0.00000   0.00014   0.00123   0.00000  -0.00000
                          26
  26        4PZ         0.00052
    Full Mulliken population analysis:
                           1         2         3         4         5
   1 1   C  1S          0.66614
   2        2S          0.50776   0.52322
   3        2PX         0.00000   0.00000   0.00000
   4        2PY         0.00000   0.00000   0.00000   0.00000
   5        2PZ         0.00000   0.00000  -0.00000   0.00000   0.16122
   6        3S         -0.04807  -0.10415   0.00000   0.00000   0.00000
   7        3PX         0.00000   0.00000  -0.00000  -0.00000  -0.00000
   8        3PY         0.00000   0.00000  -0.00000  -0.00000   0.00000
   9        3PZ         0.00000   0.00000  -0.00000   0.00000   0.15632
  10        4S         -0.01952  -0.04034   0.00000   0.00000   0.00000
  11        4PX         0.00000   0.00000   0.00000   0.00000  -0.00000
  12        4PY         0.00000   0.00000   0.00000   0.00000   0.00000
  13        4PZ         0.00000   0.00000  -0.00000   0.00000   0.06044
  14 2   O  1S          0.00000   0.00000   0.00000   0.00000   0.00000
  15        2S          0.00000   0.00000   0.00000   0.00000   0.00000
  16        2PX         0.00000   0.00000   0.00000   0.00000   0.00000
  17        2PY         0.00000   0.00000   0.00000   0.00000   0.00000
  18        2PZ         0.00000   0.00000   0.00000   0.00000   0.00000
  19        3S          0.00000  -0.00000  -0.00000  -0.00000  -0.00000
  20        3PX        -0.00000   0.00000   0.00000   0.00000   0.00000
  21        3PY        -0.00000   0.00000   0.00000   0.00000   0.00000
  22        3PZ        -0.00000   0.00000   0.00000   0.00000   0.00000
  23        4S         -0.00000  -0.00000   0.00000   0.00000   0.00000
  24        4PX        -0.00000  -0.00000   0.00000   0.00000   0.00000
  25        4PY        -0.00000  -0.00000   0.00000   0.00000   0.00000
  26        4PZ        -0.00000  -0.00000   0.00000   0.00000   0.00000
                           6         7         8         9        10
   6        3S          0.71884
   7        3PX         0.00000   0.00000
   8        3PY         0.00000   0.00000   0.00000
   9        3PZ         0.00000  -0.00000   0.00000   0.38298
  10        4S          0.48149   0.00000   0.00000   0.00000   0.53741
  11        4PX         0.00000  -0.00000  -0.00000  -0.00000   0.00000
  12        4PY         0.00000  -0.00000  -0.00000   0.00000   0.00000
  13        4PZ         0.00000  -0.00000   0.00000   0.27643   0.00000
  14 2   O  1S          0.00000   0.00000   0.00000   0.00000   0.00000
  15        2S          0.00000   0.00000   0.00000   0.00000   0.00000
  16        2PX         0.00000  -0.00000  -0.00000   0.00000   0.00000
  17        2PY         0.00000  -0.00000  -0.00000   0.00000   0.00000
  18        2PZ         0.00000   0.00000   0.00000   0.00000   0.00000
  19        3S         -0.00000  -0.00000  -0.00000  -0.00000  -0.00000
  20        3PX         0.00000  -0.00000  -0.00000   0.00000   0.00000
  21        3PY         0.00000  -0.00000  -0.00000   0.00000   0.00000
  22        3PZ         0.00000   0.00000   0.00000   0.00000   0.00000
  23        4S          0.00000   0.00000   0.00000   0.00000   0.00000
  24        4PX         0.00000  -0.00000  -0.00000   0.00000   0.00000
  25        4PY         0.00000  -0.00000  -0.00000   0.00000   0.00000
  26        4PZ         0.00000   0.00000   0.00000   0.00001   0.00003
                          11        12        13        14        15
  11        4PX         0.00001
  12        4PY         0.00000   0.00001
  13        4PZ        -0.00000   0.00000   0.46726
  14 2   O  1S          0.00000   0.00000   0.00000   0.64068
  15        2S          0.00000   0.00000   0.00000   0.51848   0.53677
  16        2PX         0.00000   0.00000   0.00000   0.00000   0.00000
  17        2PY         0.00000   0.00000   0.00000   0.00000   0.00000
  18        2PZ         0.00000   0.00000   0.00000   0.00000   0.00000
  19        3S         -0.00000  -0.00000  -0.00001  -0.05568  -0.10854
  20        3PX         0.00000   0.00000   0.00000   0.00000   0.00000
  21        3PY         0.00000   0.00000   0.00000   0.00000   0.00000
  22        3PZ         0.00000   0.00000   0.00001   0.00000   0.00000
  23        4S          0.00000   0.00000   0.00004  -0.01932  -0.03507
  24        4PX         0.00001   0.00000   0.00000   0.00000   0.00000
  25        4PY         0.00000   0.00001   0.00000   0.00000   0.00000
  26        4PZ         0.00000   0.00000   0.00057   0.00000   0.00000
                          16        17        18        19        20
  16        2PX         0.19586
  17        2PY         0.00000   0.19586
  18        2PZ         0.00000   0.00000   0.00004
  19        3S          0.00000   0.00000   0.00000   0.82575
  20        3PX         0.18023   0.00000   0.00000   0.00000   0.44283
  21        3PY         0.00000   0.18023   0.00000   0.00000   0.00000
  22        3PZ         0.00000   0.00000   0.00002   0.00000   0.00000
  23        4S          0.00000   0.00000   0.00000   0.46670   0.00000
  24        4PX         0.05381   0.00000   0.00000   0.00000   0.25649
  25        4PY         0.00000   0.05381   0.00000   0.00000   0.00000
  26        4PZ         0.00000   0.00000   0.00003   0.00000   0.00000
                          21        22        23        24        25
  21        3PY         0.44283
  22        3PZ         0.00000   0.00004
  23        4S          0.00000   0.00000   0.46370
  24        4PX         0.00000   0.00000   0.00000   0.38023
  25        4PY         0.25649   0.00000   0.00000   0.00000   0.38023
  26        4PZ         0.00000   0.00008   0.00000   0.00000   0.00000
                          26
  26        4PZ         0.00052
     Gross orbital populations:
                           1
   1 1   C  1S          1.10631
   2        2S          0.88649
   3        2PX         0.00000
   4        2PY         0.00000
   5        2PZ         0.37798
   6        3S          1.04810
   7        3PX        -0.00000
   8        3PY        -0.00000
   9        3PZ         0.81575
  10        4S          0.95906
  11        4PX         0.00001
  12        4PY         0.00001
  13        4PZ         0.80475
  14 2   O  1S          1.08416
  15        2S          0.91164
  16        2PX         0.42991
  17        2PY         0.42991
  18        2PZ         0.00010
  19        3S          1.12821
  20        3PX         0.87955
  21        3PY         0.87955
  22        3PZ         0.00016
  23        4S          0.87605
  24        4PX         0.69053
  25        4PY         0.69053
  26        4PZ         0.00125
          Condensed to atoms (all electrons):
 Mulliken charges:
               1
     1  C    0.001540
     2  O   -0.001540
 Sum of Mulliken charges =  -0.00000
 Mulliken charges with hydrogens summed into heavy atoms:
               1
     1  C    0.001540
     2  O   -0.001540
 Electronic spatial extent (au):  <R**2>=            228.6487
 Charge=              0.0000 electrons
 Dipole moment (field-independent basis, Debye):
    X=              0.0000    Y=              0.0000    Z=             -0.0570  Tot=              0.0570
 Orbital energies and kinetic energies (alpha):
                                 1                 2
   1         O               -20.686971         29.214431
   2         O               -11.359446         16.052703
   3         O                -1.247100          3.123902
   4         O                -0.723681          1.561468
   5         O                -0.571992          2.508447
   6         O                -0.571992          2.508447
   7         O                -0.357427          1.196169
   8         V                 0.008440          1.906225
   9         V                 0.043938          0.850714
  10         V                 0.043938          0.850714
  11         V                 0.583542          1.364209
  12         V                 0.615890          1.591606
  13         V                 0.615890          1.591606
  14         V                 0.617279          2.109078
  15         V                 0.959163          2.379964
  16         V                 0.959163          2.379964
  17         V                 1.008232          2.849991
  18         V                 1.058243          3.806744
  19         V                 2.930548          6.344684
  20         V                 2.930548          6.344684
  21         V                 2.959417          6.262014
  22         V                 5.190526         11.857666
  23         V                 5.217866         11.709366
  24         V                 5.217866         11.709366
  25         V                24.202360         60.132122
  26         V                51.194200        123.910604
 Total kinetic energy from orbitals= 1.123311321677D+02
 Calling FoFJK, ICntrl=      2127 FMM=F ISym2X=1 I1Cent= 0 IOpClX= 0 NMat=1 NMatS=1 NMatT=0.

 GradGradGradGradGradGradGradGradGradGradGradGradGradGradGradGradGradGrad
 FormGI is forming the generalized inverse of G from B-inverse, IUseBI=4.
 Internal  Forces:  Max     0.001054407 RMS     0.001054407
 Step number   1 out of a maximum of   10
 All quantities printed in internal units (Hartrees-Bohrs-Radians)
 Mixed Optimization -- RFO/linear search
 Second derivative matrix not updated -- first step.
 ITU=  0
     Eigenvalues ---    0.00599
 Linear search not attempted -- first point.
 Iteration  1 RMS(Cart)=  0.12088470 RMS(Int)=  0.00000000
 Iteration  2 RMS(Cart)=  0.00000000 RMS(Int)=  0.00000000
 ClnCor:  largest displacement from symmetrization is 2.22D-16 for atom     2.
 Variable       Old X    -DE/DX   Delta X   Delta X   Delta X     New X
                                 (Linear)    (Quad)   (Total)
    R1        7.70112  -0.00105   0.00000  -0.17096  -0.17096   7.53016
         Item               Value     Threshold  Converged?
 Maximum Force            0.001054     0.000450     NO 
 RMS     Force            0.001054     0.000300     NO 
 Maximum Displacement     0.085403     0.001800     NO 
 RMS     Displacement     0.120885     0.001200     NO 
 GradGradGradGradGradGradGradGradGradGradGradGradGradGradGradGradGradGrad

 Framework group  C*V[C*(CO)]
 Deg. of freedom     1
                         Standard orientation:                         
 ---------------------------------------------------------------------
 Center     Atomic      Atomic             Coordinates (Angstroms)
 Number     Number       Type             X           Y           Z
 ---------------------------------------------------------------------
      1          6           0        0.000000    0.000000   -2.277022
      2          8           0       -0.000000   -0.000000    1.707767
 ---------------------------------------------------------------------
 Rotational constants (GHZ):           0.0000000           4.6421868           4.6421868
    26 basis functions,    52 primitive gaussians,    26 cartesian basis functions
     7 alpha electrons        7 beta electrons
       nuclear repulsion energy         6.3743674021 Hartrees.
 NAtoms=    2 NActive=    2 NUniq=    2 SFac= 1.00D+00 NAtFMM=   60 NAOKFM=F Big=F
 Initial guess from the checkpoint file:  "/tmp/Gau-24770.chk"
 B after Tr=    -0.000000    0.000000   -0.000000
         Rot=    1.000000   -0.000000    0.000000    0.000000 Ang=   0.00 deg.
 Initial guess orbital symmetries:
       Occupied  (SG) (SG) (SG) (SG) (PI) (PI) (SG)
       Virtual   (SG) (PI) (PI) (SG) (PI) (PI) (SG) (PI) (PI) (SG)
                 (SG) (PI) (PI) (SG) (SG) (PI) (PI) (SG) (SG)
 ExpMin= 1.46D-01 ExpMax= 8.59D+03 ExpMxC= 1.30D+03 IAcc=3 IRadAn=         5 AccDes= 0.00D+00
 Harris functional with IExCor=  205 and IRadAn=       5 diagonalized for initial guess.
 HarFok:  IExCor=  205 AccDes= 0.00D+00 IRadAn=         5 IDoV= 1 UseB2=F ITyADJ=14
 ICtDFT=  3500011 ScaDFX=  1.000000  1.000000  1.000000  1.000000
 FoFCou: FMM=F IPFlag=           0 FMFlag=      100000 FMFlg1=           0
         NFxFlg=           0 DoJE=T BraDBF=F KetDBF=T FulRan=T
         wScrn=  0.000000 ICntrl=       500 IOpCl=  0 I1Cent=   200000004 NGrid=           0
         NMat0=    1 NMatS0=      1 NMatT0=    0 NMatD0=    1 NMtDS0=    0 NMtDT0=    0
 Petite list used in FoFCou.
 SCF Done:  E(RHF) =  -112.278109627     A.U. after    7 cycles
            NFock=  7  Conv=0.85D-09     -V/T= 1.9995
 Calling FoFJK, ICntrl=      2127 FMM=F ISym2X=1 I1Cent= 0 IOpClX= 0 NMat=1 NMatS=1 NMatT=0.

 GradGradGradGradGradGradGradGradGradGradGradGradGradGradGradGradGradGrad
 Using GEDIIS/GDIIS optimizer.
 Internal  Forces:  Max     0.001226301 RMS     0.001226301
 Step number   2 out of a maximum of   10
 All quantities printed in internal units (Hartrees-Bohrs-Radians)
 Mixed Optimization -- RFO/linear search
 Trust test= 2.10D+00 RLast= 1.71D-01 DXMaxT set to 5.05D-01
 ITU=  1  0
 Use linear search instead of GDIIS.
     Eigenvalues ---   -0.00101
 Skip linear search -- no minimum in search direction.
 Maximum step size (   0.505) exceeded in Quadratic search.
    -- Step size scaled by   0.505
 Iteration  1 RMS(Cart)=  0.14142136 RMS(Int)=  0.30453785
 Iteration  2 RMS(Cart)=  0.14142136 RMS(Int)=  0.10453785
 Iteration  3 RMS(Cart)=  0.07391942 RMS(Int)=  0.00000000
 Iteration  4 RMS(Cart)=  0.00000000 RMS(Int)=  0.00000000
 ClnCor:  largest displacement from symmetrization is 3.56D-15 for atom     2.
 Variable       Old X    -DE/DX   Delta X   Delta X   Delta X     New X
                                 (Linear)    (Quad)   (Total)
    R1        7.53016  -0.00123   0.00000  -0.50454  -0.50454   7.02562
         Item               Value     Threshold  Converged?
 Maximum Force            0.001226     0.000450     NO 
 RMS     Force            0.001226     0.000300     NO 
 Maximum Displacement     0.252046     0.001800     NO 
 RMS     Displacement     0.356762     0.001200     NO 
 GradGradGradGradGradGradGradGradGradGradGradGradGradGradGradGradGradGrad

 Framework group  C*V[C*(CO)]
 Deg. of freedom     1
                         Standard orientation:                         
 ---------------------------------------------------------------------
 Center     Atomic      Atomic             Coordinates (Angstroms)
 Number     Number       Type             X           Y           Z
 ---------------------------------------------------------------------
      1          6           0        0.000000   -0.000000   -2.124456
      2          8           0       -0.000000    0.000000    1.593342
 ---------------------------------------------------------------------
 Rotational constants (GHZ):           0.0000000           5.3328756           5.3328756
    26 basis functions,    52 primitive gaussians,    26 cartesian basis functions
     7 alpha electrons        7 beta electrons
       nuclear repulsion energy         6.8321361252 Hartrees.
 NAtoms=    2 NActive=    2 NUniq=    2 SFac= 1.00D+00 NAtFMM=   60 NAOKFM=F Big=F
 Initial guess from the checkpoint file:  "/tmp/Gau-24770.chk"
 B after Tr=    -0.000000   -0.000000    0.000000
         Rot=    1.000000   -0.000000    0.000000   -0.000000 Ang=   0.00 deg.
 Initial guess orbital symmetries:
       Occupied  (SG) (SG) (SG) (SG) (PI) (PI) (SG)
       Virtual   (SG) (PI) (PI) (SG) (PI) (PI) (SG) (PI) (PI) (SG)
                 (SG) (PI) (PI) (SG) (SG) (PI) (PI) (SG) (SG)
 ExpMin= 1.46D-01 ExpMax= 8.59D+03 ExpMxC= 1.30D+03 IAcc=3 IRadAn=         5 AccDes= 0.00D+00
 Harris functional with IExCor=  205 and IRadAn=       5 diagonalized for initial guess.
 HarFok:  IExCor=  205 AccDes= 0.00D+00 IRadAn=         5 IDoV= 1 UseB2=F ITyADJ=14
 ICtDFT=  3500011 ScaDFX=  1.000000  1.000000  1.000000  1.000000
 FoFCou: FMM=F IPFlag=           0 FMFlag=      100000 FMFlg1=           0
         NFxFlg=           0 DoJE=T BraDBF=F KetDBF=T FulRan=T
         wScrn=  0.000000 ICntrl=       500 IOpCl=  0 I1Cent=   200000004 NGrid=           0
         NMat0=    1 NMatS0=      1 NMatT0=    0 NMatD0=    1 NMtDS0=    0 NMtDT0=    0
 Petite list used in FoFCou.
 SCF Done:  E(RHF) =  -112.278891535     A.U. after    7 cycles
            NFock=  7  Conv=0.97D-08     -V/T= 1.9996
 Calling FoFJK, ICntrl=      2127 FMM=F ISym2X=1 I1Cent= 0 IOpClX= 0 NMat=1 NMatS=1 NMatT=0.

 GradGradGradGradGradGradGradGradGradGradGradGradGradGradGradGradGradGrad
 Using GEDIIS/GDIIS optimizer.
 Internal  Forces:  Max     0.001932687 RMS     0.001932687
 Step number   3 out of a maximum of   10
 All quantities printed in internal units (Hartrees-Bohrs-Radians)
 Mixed Optimization -- RFO/linear search
 Trust test= 1.05D+00 RLast= 5.05D-01 DXMaxT set to 8.49D-01
 ITU=  1  1
 Use linear search instead of GDIIS.
     Eigenvalues ---   -0.00140
 Skip linear search -- no minimum in search direction.
 Maximum step size (   0.849) exceeded in Quadratic search.
    -- Step size scaled by   0.849
 Iteration  1 RMS(Cart)=  0.14142136 RMS(Int)=  0.64852814
 Iteration  2 RMS(Cart)=  0.14142136 RMS(Int)=  0.44852814
 Iteration  3 RMS(Cart)=  0.14142136 RMS(Int)=  0.24852814
 Iteration  4 RMS(Cart)=  0.14142136 RMS(Int)=  0.04852814
 Iteration  5 RMS(Cart)=  0.03431458 RMS(Int)=  0.00000000
 Iteration  6 RMS(Cart)=  0.00000000 RMS(Int)=  0.00000000
 ClnCor:  largest displacement from symmetrization is 3.56D-15 for atom     2.
 Variable       Old X    -DE/DX   Delta X   Delta X   Delta X     New X
                                 (Linear)    (Quad)   (Total)
    R1        7.02562  -0.00193   0.00000  -0.84853  -0.84853   6.17709
         Item               Value     Threshold  Converged?
 Maximum Force            0.001933     0.000450     NO 
 RMS     Force            0.001933     0.000300     NO 
 Maximum Displacement     0.423889     0.001800     NO 
 RMS     Displacement     0.600000     0.001200     NO 
 GradGradGradGradGradGradGradGradGradGradGradGradGradGradGradGradGradGrad

 Framework group  C*V[C*(CO)]
 Deg. of freedom     1
                         Standard orientation:                         
 ---------------------------------------------------------------------
 Center     Atomic      Atomic             Coordinates (Angstroms)
 Number     Number       Type             X           Y           Z
 ---------------------------------------------------------------------
      1          6           0        0.000000   -0.000000   -1.867872
      2          8           0       -0.000000    0.000000    1.400904
 ---------------------------------------------------------------------
 Rotational constants (GHZ):           0.0000000           6.8986264           6.8986264
    26 basis functions,    52 primitive gaussians,    26 cartesian basis functions
     7 alpha electrons        7 beta electrons
       nuclear repulsion energy         7.7706455077 Hartrees.
 NAtoms=    2 NActive=    2 NUniq=    2 SFac= 1.00D+00 NAtFMM=   60 NAOKFM=F Big=F
 Initial guess from the checkpoint file:  "/tmp/Gau-24770.chk"
 B after Tr=     0.000000   -0.000000   -0.000000
         Rot=    1.000000   -0.000000   -0.000000    0.000000 Ang=   0.00 deg.
 Initial guess orbital symmetries:
       Occupied  (SG) (SG) (SG) (SG) (PI) (PI) (SG)
       Virtual   (SG) (PI) (PI) (SG) (PI) (PI) (SG) (PI) (PI) (SG)
                 (SG) (PI) (PI) (SG) (SG) (PI) (PI) (SG) (SG)
 ExpMin= 1.46D-01 ExpMax= 8.59D+03 ExpMxC= 1.30D+03 IAcc=3 IRadAn=         5 AccDes= 0.00D+00
 Harris functional with IExCor=  205 and IRadAn=       5 diagonalized for initial guess.
 HarFok:  IExCor=  205 AccDes= 0.00D+00 IRadAn=         5 IDoV= 1 UseB2=F ITyADJ=14
 ICtDFT=  3500011 ScaDFX=  1.000000  1.000000  1.000000  1.000000
 FoFCou: FMM=F IPFlag=           0 FMFlag=      100000 FMFlg1=           0
         NFxFlg=           0 DoJE=T BraDBF=F KetDBF=T FulRan=T
         wScrn=  0.000000 ICntrl=       500 IOpCl=  0 I1Cent=   200000004 NGrid=           0
         NMat0=    1 NMatS0=      1 NMatT0=    0 NMatD0=    1 NMtDS0=    0 NMtDT0=    0
 Petite list used in FoFCou.
 SCF Done:  E(RHF) =  -112.281462007     A.U. after    8 cycles
            NFock=  8  Conv=0.37D-08     -V/T= 1.9997
 Calling FoFJK, ICntrl=      2127 FMM=F ISym2X=1 I1Cent= 0 IOpClX= 0 NMat=1 NMatS=1 NMatT=0.

 GradGradGradGradGradGradGradGradGradGradGradGradGradGradGradGradGradGrad
 Using GEDIIS/GDIIS optimizer.
 Internal  Forces:  Max     0.004574128 RMS     0.004574128
 Step number   4 out of a maximum of   10
 All quantities printed in internal units (Hartrees-Bohrs-Radians)
 Mixed Optimization -- RFO/linear search
 Trust test= 1.20D+00 RLast= 8.49D-01 DXMaxT set to 1.43D+00
 ITU=  1  1
 Use linear search instead of GDIIS.
     Eigenvalues ---   -0.00311
 Skip linear search -- no minimum in search direction.
 Iteration  1 RMS(Cart)=  0.14142136 RMS(Int)=  0.80000000
 Iteration  2 RMS(Cart)=  0.14142136 RMS(Int)=  0.60000000
 Iteration  3 RMS(Cart)=  0.14142136 RMS(Int)=  0.40000000
 Iteration  4 RMS(Cart)=  0.14142136 RMS(Int)=  0.20000000
 Iteration  5 RMS(Cart)=  0.14142136 RMS(Int)=  0.00000000
 Iteration  6 RMS(Cart)=  0.00000000 RMS(Int)=  0.00000000
 ClnCor:  largest displacement from symmetrization is 3.56D-15 for atom     2.
 Variable       Old X    -DE/DX   Delta X   Delta X   Delta X     New X
                                 (Linear)    (Quad)   (Total)
    R1        6.17709  -0.00457   0.00000  -1.00000  -1.00000   5.17709
         Item               Value     Threshold  Converged?
 Maximum Force            0.004574     0.000450     NO 
 RMS     Force            0.004574     0.000300     NO 
 Maximum Displacement     0.499558     0.001800     NO 
 RMS     Displacement     0.707107     0.001200     NO 
 GradGradGradGradGradGradGradGradGradGradGradGradGradGradGradGradGradGrad

 Framework group  C*V[C*(CO)]
 Deg. of freedom     1
                         Standard orientation:                         
 ---------------------------------------------------------------------
 Center     Atomic      Atomic             Coordinates (Angstroms)
 Number     Number       Type             X           Y           Z
 ---------------------------------------------------------------------
      1          6           0        0.000000   -0.000000   -1.565486
      2          8           0       -0.000000    0.000000    1.174114
 ---------------------------------------------------------------------
 Rotational constants (GHZ):           0.0000000           9.8210738           9.8210738
    26 basis functions,    52 primitive gaussians,    26 cartesian basis functions
     7 alpha electrons        7 beta electrons
       nuclear repulsion energy         9.2716124601 Hartrees.
 NAtoms=    2 NActive=    2 NUniq=    2 SFac= 1.00D+00 NAtFMM=   60 NAOKFM=F Big=F
 Initial guess from the checkpoint file:  "/tmp/Gau-24770.chk"
 B after Tr=    -0.000000    0.000000    0.000000
         Rot=    1.000000    0.000000    0.000000    0.000000 Ang=   0.00 deg.
 Initial guess orbital symmetries:
       Occupied  (SG) (SG) (SG) (SG) (PI) (PI) (SG)
       Virtual   (SG) (PI) (PI) (SG) (SG) (PI) (PI) (PI) (PI) (SG)
                 (SG) (PI) (PI) (SG) (SG) (PI) (PI) (SG) (SG)
 ExpMin= 1.46D-01 ExpMax= 8.59D+03 ExpMxC= 1.30D+03 IAcc=3 IRadAn=         5 AccDes= 0.00D+00
 Harris functional with IExCor=  205 and IRadAn=       5 diagonalized for initial guess.
 HarFok:  IExCor=  205 AccDes= 0.00D+00 IRadAn=         5 IDoV= 1 UseB2=F ITyADJ=14
 ICtDFT=  3500011 ScaDFX=  1.000000  1.000000  1.000000  1.000000
 FoFCou: FMM=F IPFlag=           0 FMFlag=      100000 FMFlg1=           0
         NFxFlg=           0 DoJE=T BraDBF=F KetDBF=T FulRan=T
         wScrn=  0.000000 ICntrl=       500 IOpCl=  0 I1Cent=   200000004 NGrid=           0
         NMat0=    1 NMatS0=      1 NMatT0=    0 NMatD0=    1 NMtDS0=    0 NMtDT0=    0
 Petite list used in FoFCou.
 SCF Done:  E(RHF) =  -112.289957764     A.U. after    9 cycles
            NFock=  9  Conv=0.30D-08     -V/T= 2.0002
 Calling FoFJK, ICntrl=      2127 FMM=F ISym2X=1 I1Cent= 0 IOpClX= 0 NMat=1 NMatS=1 NMatT=0.

 GradGradGradGradGradGradGradGradGradGradGradGradGradGradGradGradGradGrad
 Using GEDIIS/GDIIS optimizer.
 Internal  Forces:  Max     0.014316726 RMS     0.014316726
 Step number   5 out of a maximum of   10
 All quantities printed in internal units (Hartrees-Bohrs-Radians)
 Mixed Optimization -- RFO/linear search
 Trust test= 1.39D+00 RLast= 1.00D+00 DXMaxT set to 2.40D+00
 ITU=  1  1
 Use linear search instead of GDIIS.
     Eigenvalues ---   -0.00974
 Skip linear search -- no minimum in search direction.
 Iteration  1 RMS(Cart)=  0.14142135 RMS(Int)=  0.80000000
 Iteration  2 RMS(Cart)=  0.14142136 RMS(Int)=  0.60000000
 Iteration  3 RMS(Cart)=  0.14142136 RMS(Int)=  0.40000000
 Iteration  4 RMS(Cart)=  0.14142136 RMS(Int)=  0.20000000
 Iteration  5 RMS(Cart)=  0.14142136 RMS(Int)=  0.00000000
 Iteration  6 RMS(Cart)=  0.00000000 RMS(Int)=  0.00000000
 ClnCor:  largest displacement from symmetrization is 3.55D-15 for atom     2.
 Variable       Old X    -DE/DX   Delta X   Delta X   Delta X     New X
                                 (Linear)    (Quad)   (Total)
    R1        5.17709  -0.01432   0.00000  -1.00000  -1.00000   4.17709
         Item               Value     Threshold  Converged?
 Maximum Force            0.014317     0.000450     NO 
 RMS     Force            0.014317     0.000300     NO 
 Maximum Displacement     0.499558     0.001800     NO 
 RMS     Displacement     0.707107     0.001200     NO 
 GradGradGradGradGradGradGradGradGradGradGradGradGradGradGradGradGradGrad

 Framework group  C*V[C*(CO)]
 Deg. of freedom     1
                         Standard orientation:                         
 ---------------------------------------------------------------------
 Center     Atomic      Atomic             Coordinates (Angstroms)
 Number     Number       Type             X           Y           Z
 ---------------------------------------------------------------------
      1          6           0       -0.000000    0.000000   -1.263099
      2          8           0        0.000000   -0.000000    0.947324
 ---------------------------------------------------------------------
 Rotational constants (GHZ):           0.0000000          15.0862958          15.0862958
    26 basis functions,    52 primitive gaussians,    26 cartesian basis functions
     7 alpha electrons        7 beta electrons
       nuclear repulsion energy        11.4912452171 Hartrees.
 NAtoms=    2 NActive=    2 NUniq=    2 SFac= 1.00D+00 NAtFMM=   60 NAOKFM=F Big=F
 Initial guess from the checkpoint file:  "/tmp/Gau-24770.chk"
 B after Tr=    -0.000000    0.000000   -0.000000
         Rot=    1.000000    0.000000    0.000000    0.000000 Ang=   0.00 deg.
 Initial guess orbital symmetries:
       Occupied  (SG) (SG) (SG) (SG) (PI) (PI) (SG)
       Virtual   (PI) (PI) (SG) (SG) (PI) (PI) (SG) (PI) (PI) (SG)
                 (SG) (PI) (PI) (SG) (PI) (PI) (SG) (SG) (SG)
 ExpMin= 1.46D-01 ExpMax= 8.59D+03 ExpMxC= 1.30D+03 IAcc=3 IRadAn=         5 AccDes= 0.00D+00
 Harris functional with IExCor=  205 and IRadAn=       5 diagonalized for initial guess.
 HarFok:  IExCor=  205 AccDes= 0.00D+00 IRadAn=         5 IDoV= 1 UseB2=F ITyADJ=14
 ICtDFT=  3500011 ScaDFX=  1.000000  1.000000  1.000000  1.000000
 FoFCou: FMM=F IPFlag=           0 FMFlag=      100000 FMFlg1=           0
         NFxFlg=           0 DoJE=T BraDBF=F KetDBF=T FulRan=T
         wScrn=  0.000000 ICntrl=       500 IOpCl=  0 I1Cent=   200000004 NGrid=           0
         NMat0=    1 NMatS0=      1 NMatT0=    0 NMatD0=    1 NMtDS0=    0 NMtDT0=    0
 Petite list used in FoFCou.
 SCF Done:  E(RHF) =  -112.317883838     A.U. after   11 cycles
            NFock= 11  Conv=0.34D-08     -V/T= 2.0014
 Calling FoFJK, ICntrl=      2127 FMM=F ISym2X=1 I1Cent= 0 IOpClX= 0 NMat=1 NMatS=1 NMatT=0.

 GradGradGradGradGradGradGradGradGradGradGradGradGradGradGradGradGradGrad
 Using GEDIIS/GDIIS optimizer.
 Internal  Forces:  Max     0.049882815 RMS     0.049882815
 Step number   6 out of a maximum of   10
 All quantities printed in internal units (Hartrees-Bohrs-Radians)
 Mixed Optimization -- RFO/linear search
 Trust test= 1.46D+00 RLast= 1.00D+00 DXMaxT set to 3.00D+00
 ITU=  1  1
 Use linear search instead of GDIIS.
     Eigenvalues ---   -0.03557
 Skip linear search -- no minimum in search direction.
 Iteration  1 RMS(Cart)=  0.14142136 RMS(Int)=  0.80000000
 Iteration  2 RMS(Cart)=  0.14142136 RMS(Int)=  0.60000000
 Iteration  3 RMS(Cart)=  0.14142136 RMS(Int)=  0.40000000
 Iteration  4 RMS(Cart)=  0.14142136 RMS(Int)=  0.20000000
 Iteration  5 RMS(Cart)=  0.14142136 RMS(Int)=  0.00000000
 Iteration  6 RMS(Cart)=  0.00000000 RMS(Int)=  0.00000000
 ClnCor:  largest displacement from symmetrization is 3.55D-15 for atom     2.
 Variable       Old X    -DE/DX   Delta X   Delta X   Delta X     New X
                                 (Linear)    (Quad)   (Total)
    R1        4.17709  -0.04988   0.00000  -1.00000  -1.00000   3.17709
         Item               Value     Threshold  Converged?
 Maximum Force            0.049883     0.000450     NO 
 RMS     Force            0.049883     0.000300     NO 
 Maximum Displacement     0.499558     0.001800     NO 
 RMS     Displacement     0.707107     0.001200     NO 
 GradGradGradGradGradGradGradGradGradGradGradGradGradGradGradGradGradGrad

 Framework group  C*V[C*(CO)]
 Deg. of freedom     1
                         Standard orientation:                         
 ---------------------------------------------------------------------
 Center     Atomic      Atomic             Coordinates (Angstroms)
 Number     Number       Type             X           Y           Z
 ---------------------------------------------------------------------
      1          6           0       -0.000000    0.000000   -0.960712
      2          8           0        0.000000   -0.000000    0.720534
 ---------------------------------------------------------------------
 Rotational constants (GHZ):           0.0000000          26.0778061          26.0778061
    26 basis functions,    52 primitive gaussians,    26 cartesian basis functions
     7 alpha electrons        7 beta electrons
       nuclear repulsion energy        15.1081507354 Hartrees.
 NAtoms=    2 NActive=    2 NUniq=    2 SFac= 1.00D+00 NAtFMM=   60 NAOKFM=F Big=F
 Initial guess from the checkpoint file:  "/tmp/Gau-24770.chk"
 B after Tr=    -0.000000    0.000000    0.000000
         Rot=    1.000000    0.000000   -0.000000    0.000000 Ang=   0.00 deg.
 Initial guess orbital symmetries:
       Occupied  (SG) (SG) (SG) (SG) (PI) (PI) (SG)
       Virtual   (PI) (PI) (SG) (SG) (PI) (PI) (SG) (PI) (PI) (SG)
                 (SG) (PI) (PI) (SG) (PI) (PI) (SG) (SG) (SG)
 ExpMin= 1.46D-01 ExpMax= 8.59D+03 ExpMxC= 1.30D+03 IAcc=3 IRadAn=         5 AccDes= 0.00D+00
 Harris functional with IExCor=  205 and IRadAn=       5 diagonalized for initial guess.
 HarFok:  IExCor=  205 AccDes= 0.00D+00 IRadAn=         5 IDoV= 1 UseB2=F ITyADJ=14
 ICtDFT=  3500011 ScaDFX=  1.000000  1.000000  1.000000  1.000000
 FoFCou: FMM=F IPFlag=           0 FMFlag=      100000 FMFlg1=           0
         NFxFlg=           0 DoJE=T BraDBF=F KetDBF=T FulRan=T
         wScrn=  0.000000 ICntrl=       500 IOpCl=  0 I1Cent=   200000004 NGrid=           0
         NMat0=    1 NMatS0=      1 NMatT0=    0 NMatD0=    1 NMtDS0=    0 NMtDT0=    0
 Petite list used in FoFCou.
 SCF Done:  E(RHF) =  -112.444651546     A.U. after   12 cycles
            NFock= 12  Conv=0.92D-08     -V/T= 2.0066
 Calling FoFJK, ICntrl=      2127 FMM=F ISym2X=1 I1Cent= 0 IOpClX= 0 NMat=1 NMatS=1 NMatT=0.

 GradGradGradGradGradGradGradGradGradGradGradGradGradGradGradGradGradGrad
 Using GEDIIS/GDIIS optimizer.
 Internal  Forces:  Max     0.248846064 RMS     0.248846064
 Step number   7 out of a maximum of   10
 All quantities printed in internal units (Hartrees-Bohrs-Radians)
 Mixed Optimization -- RFO/linear search
 Trust test= 1.87D+00 RLast= 1.00D+00 DXMaxT set to 3.00D+00
 ITU=  1  1
 Use linear search instead of GDIIS.
     Eigenvalues ---   -0.19896
 Skip linear search -- no minimum in search direction.
 Iteration  1 RMS(Cart)=  0.14142136 RMS(Int)=  0.80000000
 Iteration  2 RMS(Cart)=  0.14142136 RMS(Int)=  0.60000000
 Iteration  3 RMS(Cart)=  0.14142136 RMS(Int)=  0.40000000
 Iteration  4 RMS(Cart)=  0.14142136 RMS(Int)=  0.20000000
 Iteration  5 RMS(Cart)=  0.14142136 RMS(Int)=  0.00000000
 Iteration  6 RMS(Cart)=  0.00000000 RMS(Int)=  0.00000000
 ClnCor:  largest displacement from symmetrization is 3.55D-15 for atom     2.
 Variable       Old X    -DE/DX   Delta X   Delta X   Delta X     New X
                                 (Linear)    (Quad)   (Total)
    R1        3.17709  -0.24885   0.00000  -1.00000  -1.00000   2.17709
         Item               Value     Threshold  Converged?
 Maximum Force            0.248846     0.000450     NO 
 RMS     Force            0.248846     0.000300     NO 
 Maximum Displacement     0.499558     0.001800     NO 
 RMS     Displacement     0.707107     0.001200     NO 
 GradGradGradGradGradGradGradGradGradGradGradGradGradGradGradGradGradGrad

 Framework group  C*V[C*(CO)]
 Deg. of freedom     1
                         Standard orientation:                         
 ---------------------------------------------------------------------
 Center     Atomic      Atomic             Coordinates (Angstroms)
 Number     Number       Type             X           Y           Z
 ---------------------------------------------------------------------
      1          6           0        0.000000   -0.000000   -0.658325
      2          8           0       -0.000000    0.000000    0.493743
 ---------------------------------------------------------------------
 Rotational constants (GHZ):           0.0000000          55.5363002          55.5363002
    26 basis functions,    52 primitive gaussians,    26 cartesian basis functions
     7 alpha electrons        7 beta electrons
       nuclear repulsion energy        22.0477489564 Hartrees.
 NAtoms=    2 NActive=    2 NUniq=    2 SFac= 1.00D+00 NAtFMM=   60 NAOKFM=F Big=F
 Initial guess from the checkpoint file:  "/tmp/Gau-24770.chk"
 B after Tr=     0.000000   -0.000000   -0.000000
         Rot=    1.000000    0.000000   -0.000000    0.000000 Ang=   0.00 deg.
 Initial guess orbital symmetries:
       Occupied  (SG) (SG) (SG) (SG) (SG) (PI) (PI)
       Virtual   (PI) (PI) (SG) (SG) (PI) (PI) (SG) (PI) (PI) (SG)
                 (SG) (PI) (PI) (SG) (PI) (PI) (SG) (SG) (SG)
 ExpMin= 1.46D-01 ExpMax= 8.59D+03 ExpMxC= 1.30D+03 IAcc=3 IRadAn=         5 AccDes= 0.00D+00
 Harris functional with IExCor=  205 and IRadAn=       5 diagonalized for initial guess.
 HarFok:  IExCor=  205 AccDes= 0.00D+00 IRadAn=         5 IDoV= 1 UseB2=F ITyADJ=14
 ICtDFT=  3500011 ScaDFX=  1.000000  1.000000  1.000000  1.000000
 FoFCou: FMM=F IPFlag=           0 FMFlag=      100000 FMFlg1=           0
         NFxFlg=           0 DoJE=T BraDBF=F KetDBF=T FulRan=T
         wScrn=  0.000000 ICntrl=       500 IOpCl=  0 I1Cent=   200000004 NGrid=           0
         NMat0=    1 NMatS0=      1 NMatT0=    0 NMatD0=    1 NMtDS0=    0 NMtDT0=    0
 Petite list used in FoFCou.
 SCF Done:  E(RHF) =  -112.697675406     A.U. after   11 cycles
            NFock= 11  Conv=0.13D-08     -V/T= 2.0009
 Calling FoFJK, ICntrl=      2127 FMM=F ISym2X=1 I1Cent= 0 IOpClX= 0 NMat=1 NMatS=1 NMatT=0.

 GradGradGradGradGradGradGradGradGradGradGradGradGradGradGradGradGradGrad
 Using GEDIIS/GDIIS optimizer.
 Internal  Forces:  Max     0.065607526 RMS     0.065607526
 Step number   8 out of a maximum of   10
 All quantities printed in internal units (Hartrees-Bohrs-Radians)
 Mixed Optimization -- RFO/linear search
 Trust test= 7.26D-01 RLast= 1.00D+00 DXMaxT set to 3.00D+00
 ITU=  1  1
 Use linear search instead of GDIIS.
     Eigenvalues ---    0.18324
 Quartic linear search produced a step of  0.08151.
 Iteration  1 RMS(Cart)=  0.05763831 RMS(Int)=  0.00000000
 Iteration  2 RMS(Cart)=  0.00000000 RMS(Int)=  0.00000000
 ClnCor:  largest displacement from symmetrization is 0.00D+00 for atom     0.
 Variable       Old X    -DE/DX   Delta X   Delta X   Delta X     New X
                                 (Linear)    (Quad)   (Total)
    R1        2.17709  -0.06561  -0.08151   0.00000  -0.08151   2.09558
         Item               Value     Threshold  Converged?
 Maximum Force            0.065608     0.000450     NO 
 RMS     Force            0.065608     0.000300     NO 
 Maximum Displacement     0.040720     0.001800     NO 
 RMS     Displacement     0.057638     0.001200     NO 
 GradGradGradGradGradGradGradGradGradGradGradGradGradGradGradGradGradGrad

 Framework group  C*V[C*(CO)]
 Deg. of freedom     1
                         Standard orientation:                         
 ---------------------------------------------------------------------
 Center     Atomic      Atomic             Coordinates (Angstroms)
 Number     Number       Type             X           Y           Z
 ---------------------------------------------------------------------
      1          6           0       -0.000000    0.000000   -0.633676
      2          8           0        0.000000   -0.000000    0.475257
 ---------------------------------------------------------------------
 Rotational constants (GHZ):           0.0000000          59.9407770          59.9407770
    26 basis functions,    52 primitive gaussians,    26 cartesian basis functions
     7 alpha electrons        7 beta electrons
       nuclear repulsion energy        22.9053518412 Hartrees.
 NAtoms=    2 NActive=    2 NUniq=    2 SFac= 1.00D+00 NAtFMM=   60 NAOKFM=F Big=F
 Initial guess from the checkpoint file:  "/tmp/Gau-24770.chk"
 B after Tr=    -0.000000    0.000000   -0.000000
         Rot=    1.000000   -0.000000   -0.000000    0.000000 Ang=   0.00 deg.
 Initial guess orbital symmetries:
       Occupied  (SG) (SG) (SG) (SG) (PI) (PI) (SG)
       Virtual   (PI) (PI) (SG) (PI) (PI) (SG) (SG) (SG) (PI) (PI)
                 (SG) (PI) (PI) (SG) (PI) (PI) (SG) (SG) (SG)
 ExpMin= 1.46D-01 ExpMax= 8.59D+03 ExpMxC= 1.30D+03 IAcc=3 IRadAn=         5 AccDes= 0.00D+00
 Harris functional with IExCor=  205 and IRadAn=       5 diagonalized for initial guess.
 HarFok:  IExCor=  205 AccDes= 0.00D+00 IRadAn=         5 IDoV= 1 UseB2=F ITyADJ=14
 ICtDFT=  3500011 ScaDFX=  1.000000  1.000000  1.000000  1.000000
 FoFCou: FMM=F IPFlag=           0 FMFlag=      100000 FMFlg1=           0
         NFxFlg=           0 DoJE=T BraDBF=F KetDBF=T FulRan=T
         wScrn=  0.000000 ICntrl=       500 IOpCl=  0 I1Cent=   200000004 NGrid=           0
         NMat0=    1 NMatS0=      1 NMatT0=    0 NMatD0=    1 NMtDS0=    0 NMtDT0=    0
 Petite list used in FoFCou.
 SCF Done:  E(RHF) =  -112.698950854     A.U. after   10 cycles
            NFock= 10  Conv=0.41D-08     -V/T= 1.9989
 Calling FoFJK, ICntrl=      2127 FMM=F ISym2X=1 I1Cent= 0 IOpClX= 0 NMat=1 NMatS=1 NMatT=0.

 GradGradGradGradGradGradGradGradGradGradGradGradGradGradGradGradGradGrad
 Using GEDIIS/GDIIS optimizer.
 Internal  Forces:  Max     0.039470444 RMS     0.039470444
 Step number   9 out of a maximum of   10
 All quantities printed in internal units (Hartrees-Bohrs-Radians)
 Mixed Optimization -- RFO/linear search
 Trust test= 2.69D-01 RLast= 8.15D-02 DXMaxT set to 3.00D+00
 ITU=  0  1
 Use linear search instead of GDIIS.
     Eigenvalues ---    1.28910
 Quartic linear search produced a step of -0.34223.
 Iteration  1 RMS(Cart)=  0.01972542 RMS(Int)=  0.00000000
 Iteration  2 RMS(Cart)=  0.00000000 RMS(Int)=  0.00000000
 ClnCor:  largest displacement from symmetrization is 4.44D-16 for atom     2.
 Variable       Old X    -DE/DX   Delta X   Delta X   Delta X     New X
                                 (Linear)    (Quad)   (Total)
    R1        2.09558   0.03947   0.02790   0.00000   0.02790   2.12348
         Item               Value     Threshold  Converged?
 Maximum Force            0.039470     0.000450     NO 
 RMS     Force            0.039470     0.000300     NO 
 Maximum Displacement     0.013936     0.001800     NO 
 RMS     Displacement     0.019725     0.001200     NO 
 GradGradGradGradGradGradGradGradGradGradGradGradGradGradGradGradGradGrad

 Framework group  C*V[C*(CO)]
 Deg. of freedom     1
                         Standard orientation:                         
 ---------------------------------------------------------------------
 Center     Atomic      Atomic             Coordinates (Angstroms)
 Number     Number       Type             X           Y           Z
 ---------------------------------------------------------------------
      1          6           0       -0.000000   -0.000000   -0.642112
      2          8           0        0.000000    0.000000    0.481584
 ---------------------------------------------------------------------
 Rotational constants (GHZ):           0.0000000          58.3762461          58.3762461
    26 basis functions,    52 primitive gaussians,    26 cartesian basis functions
     7 alpha electrons        7 beta electrons
       nuclear repulsion energy        22.6044458655 Hartrees.
 NAtoms=    2 NActive=    2 NUniq=    2 SFac= 1.00D+00 NAtFMM=   60 NAOKFM=F Big=F
 Initial guess from the checkpoint file:  "/tmp/Gau-24770.chk"
 B after Tr=    -0.000000    0.000000    0.000000
         Rot=    1.000000   -0.000000    0.000000    0.000000 Ang=   0.00 deg.
 Initial guess orbital symmetries:
       Occupied  (SG) (SG) (SG) (SG) (PI) (PI) (SG)
       Virtual   (PI) (PI) (SG) (PI) (PI) (SG) (SG) (PI) (PI) (SG)
                 (SG) (PI) (PI) (SG) (PI) (PI) (SG) (SG) (SG)
 SCF Done:  E(RHF) =  -112.699491982     A.U. after    9 cycles
            NFock=  9  Conv=0.22D-08     -V/T= 1.9996
 Calling FoFJK, ICntrl=      2127 FMM=F ISym2X=1 I1Cent= 0 IOpClX= 0 NMat=1 NMatS=1 NMatT=0.

 GradGradGradGradGradGradGradGradGradGradGradGradGradGradGradGradGradGrad
 Using GEDIIS/GDIIS optimizer.
 Internal  Forces:  Max     0.000018781 RMS     0.000018781
 Step number  10 out of a maximum of   10
 All quantities printed in internal units (Hartrees-Bohrs-Radians)
 Mixed Optimization -- En-DIIS/RFO-DIIS
 Trust test= 9.03D-01 RLast= 2.79D-02 DXMaxT set to 3.00D+00
 ITU=  1  0
 Use linear search instead of GDIIS.
     Eigenvalues ---    1.41559
 Quartic linear search produced a step of -0.00050.
 Iteration  1 RMS(Cart)=  0.00000987 RMS(Int)=  0.00000000
 Iteration  2 RMS(Cart)=  0.00000000 RMS(Int)=  0.00000000
 ClnCor:  largest displacement from symmetrization is 0.00D+00 for atom     0.
 Variable       Old X    -DE/DX   Delta X   Delta X   Delta X     New X
                                 (Linear)    (Quad)   (Total)
    R1        2.12348  -0.00002  -0.00001   0.00000  -0.00001   2.12346
         Item               Value     Threshold  Converged?
 Maximum Force            0.000019     0.000450     YES
 RMS     Force            0.000019     0.000300     YES
 Maximum Displacement     0.000007     0.001800     YES
 RMS     Displacement     0.000010     0.001200     YES
 Optimization completed.
    -- Stationary point found.
                           ----------------------------
                           !   Optimized Parameters   !
                           ! (Angstroms and Degrees)  !
 --------------------------                            --------------------------
 ! Name  Definition              Value          Derivative Info.                !
 --------------------------------------------------------------------------------
 ! R1    R(1,2)                  1.1237         -DE/DX =    0.0                 !
 --------------------------------------------------------------------------------
 GradGradGradGradGradGradGradGradGradGradGradGradGradGradGradGradGradGrad

 Framework group  C*V[C*(CO)]
 Deg. of freedom     1
                         Standard orientation:                         
 ---------------------------------------------------------------------
 Center     Atomic      Atomic             Coordinates (Angstroms)
 Number     Number       Type             X           Y           Z
 ---------------------------------------------------------------------
      1          6           0       -0.000000   -0.000000   -0.642112
      2          8           0        0.000000    0.000000    0.481584
 ---------------------------------------------------------------------
 Rotational constants (GHZ):           0.0000000          58.3762461          58.3762461

 **********************************************************************

            Population analysis using the SCF Density.

 **********************************************************************

 Orbital symmetries:
       Occupied  (SG) (SG) (SG) (SG) (PI) (PI) (SG)
       Virtual   (PI) (PI) (SG) (PI) (PI) (SG) (SG) (PI) (PI) (SG)
                 (SG) (PI) (PI) (SG) (PI) (PI) (SG) (SG) (SG)
 The electronic state is 1-SG.
 Alpha  occ. eigenvalues --  -20.68365 -11.39035  -1.56752  -0.80035  -0.64833
 Alpha  occ. eigenvalues --   -0.64833  -0.55681
 Alpha virt. eigenvalues --    0.13280   0.13280   0.34819   0.56318   0.56318
 Alpha virt. eigenvalues --    0.59616   0.86922   1.04458   1.04458   1.07935
 Alpha virt. eigenvalues --    1.58409   2.90744   2.90744   3.00088   5.26717
 Alpha virt. eigenvalues --    5.26717   5.42070  24.33905  51.38911
     Molecular Orbital Coefficients:
                           1         2         3         4         5
                           O         O         O         O         O
     Eigenvalues --   -20.68365 -11.39035  -1.56752  -0.80035  -0.64833
   1 1   C  1S          0.00003   0.56345  -0.06266   0.07093   0.00000
   2        2S         -0.00009   0.46699  -0.09949   0.12137   0.00000
   3        2PX         0.00000   0.00000   0.00000   0.00000   0.00000
   4        2PY         0.00000   0.00000   0.00000   0.00000   0.12922
   5        2PZ         0.00021   0.00452   0.11010  -0.05978   0.00000
   6        3S          0.00048   0.00250   0.26068  -0.37915   0.00000
   7        3PX         0.00000   0.00000   0.00000   0.00000   0.00000
   8        3PY         0.00000   0.00000   0.00000   0.00000   0.21851
   9        3PZ         0.00035  -0.00221   0.11841  -0.09398   0.00000
  10        4S          0.00041  -0.00072  -0.01157  -0.14933   0.00000
  11        4PX         0.00000   0.00000   0.00000   0.00000   0.00000
  12        4PY         0.00000   0.00000   0.00000   0.00000   0.09804
  13        4PZ         0.00025   0.00023  -0.03262   0.03017   0.00000
  14 2   O  1S          0.55145  -0.00035  -0.10722  -0.06132   0.00000
  15        2S          0.47169  -0.00054  -0.18013  -0.10361   0.00000
  16        2PX         0.00000   0.00000   0.00000   0.00000   0.00000
  17        2PY         0.00000   0.00000   0.00000   0.00000   0.24826
  18        2PZ        -0.00256  -0.00046  -0.08172   0.22544   0.00000
  19        3S          0.00556   0.00144   0.52079   0.30783   0.00000
  20        3PX         0.00000   0.00000   0.00000   0.00000   0.00000
  21        3PY         0.00000   0.00000   0.00000   0.00000   0.39785
  22        3PZ         0.00081  -0.00138  -0.15034   0.33609   0.00000
  23        4S         -0.00095   0.00086   0.34680   0.41209   0.00000
  24        4PX         0.00000   0.00000   0.00000   0.00000   0.00000
  25        4PY         0.00000   0.00000   0.00000   0.00000   0.34822
  26        4PZ         0.00009  -0.00025  -0.03521   0.19246   0.00000
                           6         7         8         9        10
                           O         O         V         V         V
     Eigenvalues --    -0.64833  -0.55681   0.13280   0.13280   0.34819
   1 1   C  1S          0.00000  -0.07341   0.00000   0.00000  -0.00119
   2        2S          0.00000  -0.12675   0.00000   0.00000  -0.00546
   3        2PX         0.12922   0.00000   0.00000   0.20192   0.00000
   4        2PY         0.00000   0.00000   0.20192   0.00000   0.00000
   5        2PZ         0.00000  -0.21044   0.00000   0.00000  -0.02819
   6        3S          0.00000   0.34838   0.00000   0.00000   0.12891
   7        3PX         0.21851   0.00000   0.00000   0.31135   0.00000
   8        3PY         0.00000   0.00000   0.31135   0.00000   0.00000
   9        3PZ         0.00000  -0.27984   0.00000   0.00000  -0.10572
  10        4S          0.00000   0.60219   0.00000   0.00000  -1.90765
  11        4PX         0.09804   0.00000   0.00000   0.77028   0.00000
  12        4PY         0.00000   0.00000   0.77028   0.00000   0.00000
  13        4PZ         0.00000  -0.11077   0.00000   0.00000  -1.80616
  14 2   O  1S          0.00000   0.00734   0.00000   0.00000  -0.04078
  15        2S          0.00000   0.01361   0.00000   0.00000  -0.06759
  16        2PX         0.24826   0.00000   0.00000  -0.16856   0.00000
  17        2PY         0.00000   0.00000  -0.16856   0.00000   0.00000
  18        2PZ         0.00000   0.12117   0.00000   0.00000  -0.02960
  19        3S          0.00000  -0.04943   0.00000   0.00000   0.12748
  20        3PX         0.39785   0.00000   0.00000  -0.23847   0.00000
  21        3PY         0.00000   0.00000  -0.23847   0.00000   0.00000
  22        3PZ         0.00000   0.19965   0.00000   0.00000  -0.03864
  23        4S          0.00000  -0.06057   0.00000   0.00000   2.04779
  24        4PX         0.34822   0.00000   0.00000  -0.50567   0.00000
  25        4PY         0.00000   0.00000  -0.50567   0.00000   0.00000
  26        4PZ         0.00000   0.14274   0.00000   0.00000  -0.61613
                          11        12        13        14        15
                           V         V         V         V         V
     Eigenvalues --     0.56318   0.56318   0.59616   0.86922   1.04458
   1 1   C  1S          0.00000   0.00000   0.08932  -0.06739   0.00000
   2        2S          0.00000   0.00000   0.18731  -0.15720   0.00000
   3        2PX         0.00000  -0.22751   0.00000   0.00000   0.00000
   4        2PY        -0.22751   0.00000   0.00000   0.00000   0.06923
   5        2PZ         0.00000   0.00000   0.10974   0.14402   0.00000
   6        3S          0.00000   0.00000  -1.12820   1.41537   0.00000
   7        3PX         0.00000  -0.95079   0.00000   0.00000   0.00000
   8        3PY        -0.95079   0.00000   0.00000   0.00000   0.03608
   9        3PZ         0.00000   0.00000   0.68413   0.72615   0.00000
  10        4S          0.00000   0.00000   1.61473   0.36381   0.00000
  11        4PX         0.00000   1.13943   0.00000   0.00000   0.00000
  12        4PY         1.13943   0.00000   0.00000   0.00000  -0.59053
  13        4PZ         0.00000   0.00000  -0.49044  -0.01281   0.00000
  14 2   O  1S          0.00000   0.00000   0.00562   0.03856   0.00000
  15        2S          0.00000   0.00000   0.00999   0.06847   0.00000
  16        2PX         0.00000   0.00570   0.00000   0.00000   0.00000
  17        2PY         0.00570   0.00000   0.00000   0.00000  -0.23731
  18        2PZ         0.00000   0.00000  -0.03352  -0.02751   0.00000
  19        3S          0.00000   0.00000  -0.01792  -0.19661   0.00000
  20        3PX         0.00000  -0.01424   0.00000   0.00000   0.00000
  21        3PY        -0.01424   0.00000   0.00000   0.00000  -0.85189
  22        3PZ         0.00000   0.00000  -0.05876  -0.27875   0.00000
  23        4S          0.00000   0.00000  -0.50153  -0.97904   0.00000
  24        4PX         0.00000   0.00934   0.00000   0.00000   0.00000
  25        4PY         0.00934   0.00000   0.00000   0.00000   1.41733
  26        4PZ         0.00000   0.00000   0.45136   1.81488   0.00000
                          16        17        18        19        20
                           V         V         V         V         V
     Eigenvalues --     1.04458   1.07935   1.58409   2.90744   2.90744
   1 1   C  1S          0.00000  -0.06101  -0.00318   0.00000   0.00000
   2        2S          0.00000  -0.13847   0.01185   0.00000   0.00000
   3        2PX         0.06923   0.00000   0.00000   0.00000  -1.31942
   4        2PY         0.00000   0.00000   0.00000  -1.31942   0.00000
   5        2PZ         0.00000   0.23396   0.07954   0.00000   0.00000
   6        3S          0.00000   0.67413  -0.50684   0.00000   0.00000
   7        3PX         0.03608   0.00000   0.00000   0.00000   1.43054
   8        3PY         0.00000   0.00000   0.00000   1.43054   0.00000
   9        3PZ         0.00000   0.88561  -0.37012   0.00000   0.00000
  10        4S          0.00000  -0.07647  -2.22172   0.00000   0.00000
  11        4PX        -0.59053   0.00000   0.00000   0.00000  -0.57147
  12        4PY         0.00000   0.00000   0.00000  -0.57147   0.00000
  13        4PZ         0.00000  -0.25584  -1.37503   0.00000   0.00000
  14 2   O  1S          0.00000   0.01202   0.11725   0.00000   0.00000
  15        2S          0.00000   0.02250   0.25189   0.00000   0.00000
  16        2PX        -0.23731   0.00000   0.00000   0.00000  -0.04017
  17        2PY         0.00000   0.00000   0.00000  -0.04017   0.00000
  18        2PZ         0.00000   0.27809   0.04610   0.00000   0.00000
  19        3S          0.00000  -0.04426  -2.01085   0.00000   0.00000
  20        3PX        -0.85189   0.00000   0.00000   0.00000  -0.08555
  21        3PY         0.00000   0.00000   0.00000  -0.08555   0.00000
  22        3PZ         0.00000   0.88355   0.10714   0.00000   0.00000
  23        4S          0.00000  -0.55638   4.32931   0.00000   0.00000
  24        4PX         1.41733   0.00000   0.00000   0.00000   0.04941
  25        4PY         0.00000   0.00000   0.00000   0.04941   0.00000
  26        4PZ         0.00000  -0.30034  -1.39412   0.00000   0.00000
                          21        22        23        24        25
                           V         V         V         V         V
     Eigenvalues --     3.00088   5.26717   5.26717   5.42070  24.33905
   1 1   C  1S         -0.01878   0.00000   0.00000  -0.00177  -2.02698
   2        2S         -0.05306   0.00000   0.00000  -0.04085   2.16903
   3        2PX         0.00000   0.00000   0.04894   0.00000   0.00000
   4        2PY         0.00000   0.04894   0.00000   0.00000   0.00000
   5        2PZ        -1.33108   0.00000   0.00000   0.26235   0.02765
   6        3S          0.42850   0.00000   0.00000   0.15290  -0.43552
   7        3PX         0.00000   0.00000  -0.13824   0.00000   0.00000
   8        3PY         0.00000  -0.13824   0.00000   0.00000   0.00000
   9        3PZ         1.92350   0.00000   0.00000   0.04375  -0.13618
  10        4S          0.32388   0.00000   0.00000  -0.29043   0.10409
  11        4PX         0.00000   0.00000   0.23178   0.00000   0.00000
  12        4PY         0.00000   0.23178   0.00000   0.00000   0.00000
  13        4PZ        -0.50053   0.00000   0.00000  -0.08564  -0.00058
  14 2   O  1S          0.00552   0.00000   0.00000   0.00795  -0.01085
  15        2S          0.02363   0.00000   0.00000   0.01692   0.00109
  16        2PX         0.00000   0.00000  -1.27692   0.00000   0.00000
  17        2PY         0.00000  -1.27692   0.00000   0.00000   0.00000
  18        2PZ        -0.15056   0.00000   0.00000  -1.28391   0.01594
  19        3S         -0.26717   0.00000   0.00000  -0.12394   0.02519
  20        3PX         0.00000   0.00000   1.42564   0.00000   0.00000
  21        3PY         0.00000   1.42564   0.00000   0.00000   0.00000
  22        3PZ         0.36581   0.00000   0.00000   1.50183  -0.08478
  23        4S         -0.48166   0.00000   0.00000   0.21493   0.12623
  24        4PX         0.00000   0.00000  -0.65517   0.00000   0.00000
  25        4PY         0.00000  -0.65517   0.00000   0.00000   0.00000
  26        4PZ         0.45215   0.00000   0.00000  -0.61431  -0.10487
                          26
                           V
     Eigenvalues --    51.38911
   1 1   C  1S          0.01285
   2        2S         -0.02013
   3        2PX         0.00000
   4        2PY         0.00000
   5        2PZ        -0.00172
   6        3S         -0.00871
   7        3PX         0.00000
   8        3PY         0.00000
   9        3PZ         0.01178
  10        4S         -0.18229
  11        4PX         0.00000
  12        4PY         0.00000
  13        4PZ        -0.12373
  14 2   O  1S         -2.24698
  15        2S          2.33472
  16        2PX         0.00000
  17        2PY         0.00000
  18        2PZ        -0.00869
  19        3S         -0.28298
  20        3PX         0.00000
  21        3PY         0.00000
  22        3PZ         0.03055
  23        4S          0.37340
  24        4PX         0.00000
  25        4PY         0.00000
  26        4PZ        -0.09845
     Density Matrix:
                           1         2         3         4         5
   1 1   C  1S          0.66365
   2        2S          0.57455   0.51756
   3        2PX         0.00000   0.00000   0.03340
   4        2PY         0.00000   0.00000   0.00000   0.03340
   5        2PZ         0.01371   0.02115   0.00000   0.00000   0.12000
   6        3S         -0.13478  -0.22988  -0.00000  -0.00000  -0.04387
   7        3PX         0.00000   0.00000   0.05647   0.00000   0.00000
   8        3PY         0.00000   0.00000   0.00000   0.05647   0.00000
   9        3PZ         0.01043   0.02251   0.00000   0.00000   0.15507
  10        4S         -0.10895  -0.18728  -0.00000  -0.00000  -0.23815
  11        4PX         0.00000   0.00000   0.02534   0.00000   0.00000
  12        4PY         0.00000   0.00000   0.00000   0.02534   0.00000
  13        4PZ         0.02489   0.04211   0.00000   0.00000   0.03583
  14 2   O  1S          0.00329   0.00416  -0.00000  -0.00000  -0.01914
  15        2S          0.00529   0.00665  -0.00000  -0.00000  -0.03281
  16        2PX         0.00000   0.00000   0.06416   0.00000  -0.00000
  17        2PY         0.00000   0.00000   0.00000   0.06416   0.00000
  18        2PZ         0.02392   0.03984  -0.00000   0.00000  -0.09595
  19        3S         -0.01272  -0.01503   0.00000   0.00000   0.09869
  20        3PX         0.00000   0.00000   0.10282   0.00000  -0.00000
  21        3PY         0.00000   0.00000   0.00000   0.10282   0.00000
  22        3PZ         0.03565   0.05960  -0.00000   0.00000  -0.15732
  23        4S          0.02485   0.04718   0.00000   0.00000   0.05259
  24        4PX         0.00000   0.00000   0.09000   0.00000  -0.00000
  25        4PY         0.00000   0.00000   0.00000   0.09000   0.00000
  26        4PZ         0.01048   0.01730  -0.00000   0.00000  -0.09084
                           6         7         8         9        10
   6        3S          0.66616
   7        3PX        -0.00000   0.09549
   8        3PY        -0.00000   0.00000   0.09549
   9        3PZ        -0.06199   0.00000   0.00000   0.20234
  10        4S          0.52678  -0.00000  -0.00000  -0.31170   0.77014
  11        4PX        -0.00000   0.04285   0.00000   0.00000  -0.00000
  12        4PY        -0.00000   0.00000   0.04285   0.00000  -0.00000
  13        4PZ        -0.11707   0.00000   0.00000   0.04860  -0.14167
  14 2   O  1S         -0.00376  -0.00000  -0.00000  -0.01759   0.03009
  15        2S         -0.00542  -0.00000  -0.00000  -0.03047   0.05190
  16        2PX        -0.00000   0.10849   0.00000  -0.00000   0.00000
  17        2PY        -0.00000   0.00000   0.10849   0.00000   0.00000
  18        2PZ        -0.12913  -0.00000   0.00000  -0.12955   0.08050
  19        3S          0.00367   0.00000   0.00000   0.09313  -0.16352
  20        3PX        -0.00000   0.17387   0.00000  -0.00000   0.00000
  21        3PY        -0.00000   0.00000   0.17387   0.00000   0.00000
  22        3PZ        -0.19414  -0.00000   0.00000  -0.21051   0.14356
  23        4S         -0.17388   0.00000   0.00000   0.03856  -0.20405
  24        4PX        -0.00000   0.15218   0.00000  -0.00000   0.00000
  25        4PY        -0.00000   0.00000   0.15218   0.00000   0.00000
  26        4PZ        -0.06485  -0.00000   0.00000  -0.12440   0.11525
                          11        12        13        14        15
  11        4PX         0.01922
  12        4PY         0.00000   0.01922
  13        4PZ         0.00000   0.00000   0.02849
  14 2   O  1S          0.00000   0.00000   0.00194   0.63881
  15        2S          0.00000   0.00000   0.00272   0.57176   0.53172
  16        2PX         0.04868   0.00000   0.00000  -0.00000  -0.00000
  17        2PY         0.00000   0.04868   0.00000  -0.00000  -0.00000
  18        2PZ         0.00000   0.00000  -0.00791  -0.01117  -0.01639
  19        3S         -0.00000  -0.00000  -0.00445  -0.14403  -0.24752
  20        3PX         0.07801   0.00000   0.00000  -0.00000  -0.00000
  21        3PY         0.00000   0.07801   0.00000  -0.00000  -0.00000
  22        3PZ         0.00000   0.00000  -0.01414  -0.00516  -0.00928
  23        4S          0.00000   0.00000   0.01566  -0.12684  -0.21288
  24        4PX         0.06828   0.00000   0.00000  -0.00000  -0.00000
  25        4PY         0.00000   0.06828   0.00000  -0.00000  -0.00000
  26        4PZ         0.00000   0.00000  -0.01771  -0.01386  -0.02322
                          16        17        18        19        20
  16        2PX         0.12326
  17        2PY         0.00000   0.12326
  18        2PZ         0.00000   0.00000   0.14438
  19        3S          0.00000   0.00000   0.04166   0.73692
  20        3PX         0.19754   0.00000   0.00000   0.00000   0.31657
  21        3PY         0.00000   0.19754   0.00000   0.00000   0.00000
  22        3PZ         0.00000   0.00000   0.22449   0.03059   0.00000
  23        4S          0.00000   0.00000   0.11445   0.62091   0.00000
  24        4PX         0.17290   0.00000   0.00000   0.00000   0.27708
  25        4PY         0.00000   0.17290   0.00000   0.00000   0.00000
  26        4PZ         0.00000   0.00000   0.12713   0.06770   0.00000
                          21        22        23        24        25
  21        3PY         0.31657
  22        3PZ         0.00000   0.35084
  23        4S          0.00000   0.14853   0.58752
  24        4PX         0.00000   0.00000   0.00000   0.24252
  25        4PY         0.27708   0.00000   0.00000   0.00000   0.24252
  26        4PZ         0.00000   0.19695   0.11691   0.00000   0.00000
                          26
  26        4PZ         0.11732
    Full Mulliken population analysis:
                           1         2         3         4         5
   1 1   C  1S          0.66365
   2        2S          0.50471   0.51756
   3        2PX         0.00000   0.00000   0.03340
   4        2PY         0.00000   0.00000   0.00000   0.03340
   5        2PZ         0.00000   0.00000   0.00000   0.00000   0.12000
   6        3S         -0.04437  -0.09628   0.00000   0.00000   0.00000
   7        3PX         0.00000   0.00000   0.03553   0.00000   0.00000
   8        3PY         0.00000   0.00000   0.00000   0.03553   0.00000
   9        3PZ         0.00000   0.00000   0.00000   0.00000   0.09756
  10        4S         -0.01675  -0.03505   0.00000   0.00000   0.00000
  11        4PX         0.00000   0.00000   0.00558   0.00000   0.00000
  12        4PY         0.00000   0.00000   0.00000   0.00558   0.00000
  13        4PZ         0.00000   0.00000   0.00000   0.00000   0.00789
  14 2   O  1S          0.00000   0.00000  -0.00000  -0.00000  -0.00015
  15        2S          0.00000  -0.00000  -0.00000  -0.00000  -0.00020
  16        2PX        -0.00000  -0.00000   0.00050   0.00000   0.00000
  17        2PY        -0.00000  -0.00000   0.00000   0.00050  -0.00000
  18        2PZ        -0.00008  -0.00004   0.00000  -0.00000   0.00587
  19        3S         -0.00024  -0.00028   0.00000   0.00000   0.01291
  20        3PX        -0.00000  -0.00000   0.00666   0.00000   0.00000
  21        3PY        -0.00000  -0.00000   0.00000   0.00666   0.00000
  22        3PZ        -0.00201  -0.00385   0.00000   0.00000   0.04220
  23        4S          0.00191   0.00436   0.00000   0.00000   0.00798
  24        4PX        -0.00000  -0.00000   0.01272   0.00000   0.00000
  25        4PY        -0.00000  -0.00000   0.00000   0.01272   0.00000
  26        4PZ        -0.00160  -0.00327   0.00000   0.00000   0.01257
                           6         7         8         9        10
   6        3S          0.66616
   7        3PX         0.00000   0.09549
   8        3PY         0.00000   0.00000   0.09549
   9        3PZ         0.00000   0.00000   0.00000   0.20234
  10        4S          0.40810   0.00000   0.00000   0.00000   0.77014
  11        4PX         0.00000   0.02800   0.00000   0.00000   0.00000
  12        4PY         0.00000   0.00000   0.02800   0.00000   0.00000
  13        4PZ         0.00000   0.00000   0.00000   0.03176   0.00000
  14 2   O  1S         -0.00012  -0.00000  -0.00000  -0.00154   0.00169
  15        2S         -0.00018  -0.00000  -0.00000  -0.00285   0.00308
  16        2PX         0.00000   0.00613   0.00000   0.00000  -0.00000
  17        2PY         0.00000   0.00000   0.00613   0.00000  -0.00000
  18        2PZ         0.01077   0.00000   0.00000   0.02016  -0.00371
  19        3S          0.00082   0.00000   0.00000   0.04025  -0.05333
  20        3PX         0.00000   0.03718   0.00000   0.00000  -0.00000
  21        3PY         0.00000   0.00000   0.03718   0.00000  -0.00000
  22        3PZ         0.06130   0.00000   0.00000   0.08295  -0.02621
  23        4S         -0.07591   0.00000   0.00000   0.01719  -0.12666
  24        4PX         0.00000   0.06320   0.00000  -0.00000  -0.00000
  25        4PY         0.00000   0.00000   0.06320   0.00000  -0.00000
  26        4PZ         0.03976  -0.00000   0.00000   0.02624  -0.05574
                          11        12        13        14        15
  11        4PX         0.01922
  12        4PY         0.00000   0.01922
  13        4PZ         0.00000   0.00000   0.02849
  14 2   O  1S          0.00000   0.00000   0.00017   0.63881
  15        2S          0.00000   0.00000   0.00026   0.51572   0.53172
  16        2PX         0.00277   0.00000   0.00000   0.00000   0.00000
  17        2PY         0.00000   0.00277   0.00000   0.00000   0.00000
  18        2PZ         0.00000   0.00000   0.00011   0.00000   0.00000
  19        3S         -0.00000  -0.00000  -0.00202  -0.05077  -0.09937
  20        3PX         0.01758   0.00000   0.00000   0.00000   0.00000
  21        3PY         0.00000   0.01758   0.00000   0.00000   0.00000
  22        3PZ         0.00000   0.00000   0.00042   0.00000   0.00000
  23        4S          0.00000   0.00000   0.01004  -0.02003  -0.03625
  24        4PX         0.04076   0.00000   0.00000   0.00000   0.00000
  25        4PY         0.00000   0.04076   0.00000   0.00000   0.00000
  26        4PZ         0.00000   0.00000  -0.00173   0.00000   0.00000
                          16        17        18        19        20
  16        2PX         0.12326
  17        2PY         0.00000   0.12326
  18        2PZ         0.00000   0.00000   0.14438
  19        3S          0.00000   0.00000   0.00000   0.73692
  20        3PX         0.12089   0.00000   0.00000   0.00000   0.31657
  21        3PY         0.00000   0.12089   0.00000   0.00000   0.00000
  22        3PZ         0.00000   0.00000   0.13739   0.00000   0.00000
  23        4S          0.00000   0.00000   0.00000   0.46836   0.00000
  24        4PX         0.03409   0.00000   0.00000   0.00000   0.17319
  25        4PY         0.00000   0.03409   0.00000   0.00000   0.00000
  26        4PZ         0.00000   0.00000   0.02507   0.00000   0.00000
                          21        22        23        24        25
  21        3PY         0.31657
  22        3PZ         0.00000   0.35084
  23        4S          0.00000   0.00000   0.58752
  24        4PX         0.00000   0.00000   0.00000   0.24252
  25        4PY         0.17319   0.00000   0.00000   0.00000   0.24252
  26        4PZ         0.00000   0.12311   0.00000   0.00000   0.00000
                          26
  26        4PZ         0.11732
     Gross orbital populations:
                           1
   1 1   C  1S          1.10523
   2        2S          0.88787
   3        2PX         0.09439
   4        2PY         0.09439
   5        2PZ         0.30662
   6        3S          0.97006
   7        3PX         0.26552
   8        3PY         0.26552
   9        3PZ         0.51405
  10        4S          0.86556
  11        4PX         0.11391
  12        4PY         0.11391
  13        4PZ         0.07538
  14 2   O  1S          1.08377
  15        2S          0.91192
  16        2PX         0.28764
  17        2PY         0.28764
  18        2PZ         0.33992
  19        3S          1.05325
  20        3PX         0.67206
  21        3PY         0.67206
  22        3PZ         0.76613
  23        4S          0.83851
  24        4PX         0.56648
  25        4PY         0.56648
  26        4PZ         0.28173
          Condensed to atoms (all electrons):
 Mulliken charges:
               1
     1  C    0.327600
     2  O   -0.327600
 Sum of Mulliken charges =   0.00000
 Mulliken charges with hydrogens summed into heavy atoms:
               1
     1  C    0.327600
     2  O   -0.327600
 Electronic spatial extent (au):  <R**2>=             40.2141
 Charge=              0.0000 electrons
 Dipole moment (field-independent basis, Debye):
    X=              0.0000    Y=              0.0000    Z=             -0.4766  Tot=              0.4766
 Orbital energies and kinetic energies (alpha):
                                 1                 2
   1         O               -20.683655         29.200216
   2         O               -11.390355         16.033767
   3         O                -1.567519          2.911058
   4         O                -0.800353          2.665848
   5         O                -0.648327          1.985775
   6         O                -0.648327          1.985775
   7         O                -0.556810          1.588755
   8         V                 0.132798          1.480998
   9         V                 0.132798          1.480998
  10         V                 0.348185          0.815423
  11         V                 0.563180          1.455947
  12         V                 0.563180          1.455947
  13         V                 0.596165          1.750180
  14         V                 0.869219          2.037271
  15         V                 1.044582          2.568959
  16         V                 1.044582          2.568959
  17         V                 1.079353          4.049800
  18         V                 1.584091          4.517354
  19         V                 2.907438          6.352602
  20         V                 2.907438          6.352602
  21         V                 3.000883          6.379522
  22         V                 5.267170         11.859381
  23         V                 5.267170         11.859381
  24         V                 5.420705         12.098888
  25         V                24.339049         60.211735
  26         V                51.389107        123.836905
 Total kinetic energy from orbitals= 1.127423893893D+02

 Test job not archived.
 1\1\GINC-RAMITA\FOpt\RHF\6-311G\C1O1\LINUX-POHL-V2\12-Jun-2023\0\\#T H
 F/6-311G # Opt( MaxCycle=10) # Gfinput IOP(6/7=3) Pop=full Density Tes
 t # Units(Ang,Deg)\\Input file generated by gabedit...\\0,1\C,-2.22702
 49257,0.4992032383,-11.8462325075\O,-1.1043240743,0.4878627617,-11.800
 3524925\\Version=EM64L-G16RevB.01\State=1-SG\HF=-112.699492\RMSD=2.152
 e-09\RMSF=1.084e-05\Dipole=-0.1873433,0.0018924,-0.0076559\Quadrupole=
 -1.4324995,0.7179358,0.7145637,0.0217239,-0.0878881,0.0008878\PG=C*V [
 C*(C1O1)]\\@


 NATURE REVEALS EVERY SECRET ONCE.
                    - RALPH WALDO EMERSON
 Job cpu time:       0 days  0 hours  0 minutes 21.9 seconds.
 Elapsed time:       0 days  0 hours  0 minutes  6.5 seconds.
 File lengths (MBytes):  RWF=      6 Int=      0 D2E=      0 Chk=      1 Scr=      1
 Normal termination of Gaussian 16 at Mon Jun 12 17:45:56 2023.
