 Entering Gaussian System, Link 0=g16
 Input=co.com
 Output=co.log
 Initial command:
 /home/linux-pohl-v2/Escritorio/Gaussian/g16/l1.exe "/tmp/Gau-34614.inp" -scrdir="/tmp/"
 Entering Link 1 = /home/linux-pohl-v2/Escritorio/Gaussian/g16/l1.exe PID=     34616.
  
 Copyright (c) 1988-2017, Gaussian, Inc.  All Rights Reserved.
  
 This is part of the Gaussian(R) 16 program.  It is based on
 the Gaussian(R) 09 system (copyright 2009, Gaussian, Inc.),
 the Gaussian(R) 03 system (copyright 2003, Gaussian, Inc.),
 the Gaussian(R) 98 system (copyright 1998, Gaussian, Inc.),
 the Gaussian(R) 94 system (copyright 1995, Gaussian, Inc.),
 the Gaussian 92(TM) system (copyright 1992, Gaussian, Inc.),
 the Gaussian 90(TM) system (copyright 1990, Gaussian, Inc.),
 the Gaussian 88(TM) system (copyright 1988, Gaussian, Inc.),
 the Gaussian 86(TM) system (copyright 1986, Carnegie Mellon
 University), and the Gaussian 82(TM) system (copyright 1983,
 Carnegie Mellon University). Gaussian is a federally registered
 trademark of Gaussian, Inc.
  
 This software contains proprietary and confidential information,
 including trade secrets, belonging to Gaussian, Inc.
  
 This software is provided under written license and may be
 used, copied, transmitted, or stored only in accord with that
 written license.
  
 The following legend is applicable only to US Government
 contracts under FAR:
  
                    RESTRICTED RIGHTS LEGEND
  
 Use, reproduction and disclosure by the US Government is
 subject to restrictions as set forth in subparagraphs (a)
 and (c) of the Commercial Computer Software - Restricted
 Rights clause in FAR 52.227-19.
  
 Gaussian, Inc.
 340 Quinnipiac St., Bldg. 40, Wallingford CT 06492
  
  
 ---------------------------------------------------------------
 Warning -- This program may not be used in any manner that
 competes with the business of Gaussian, Inc. or will provide
 assistance to any competitor of Gaussian, Inc.  The licensee
 of this program is prohibited from giving any competitor of
 Gaussian, Inc. access to this program.  By using this program,
 the user acknowledges that Gaussian, Inc. is engaged in the
 business of creating and licensing software in the field of
 computational chemistry and represents and warrants to the
 licensee that it is not a competitor of Gaussian, Inc. and that
 it will not use this program in any manner prohibited above.
 ---------------------------------------------------------------
  

 Cite this work as:
 Gaussian 16, Revision B.01,
 M. J. Frisch, G. W. Trucks, H. B. Schlegel, G. E. Scuseria, 
 M. A. Robb, J. R. Cheeseman, G. Scalmani, V. Barone, 
 G. A. Petersson, H. Nakatsuji, X. Li, M. Caricato, A. V. Marenich, 
 J. Bloino, B. G. Janesko, R. Gomperts, B. Mennucci, H. P. Hratchian, 
 J. V. Ortiz, A. F. Izmaylov, J. L. Sonnenberg, D. Williams-Young, 
 F. Ding, F. Lipparini, F. Egidi, J. Goings, B. Peng, A. Petrone, 
 T. Henderson, D. Ranasinghe, V. G. Zakrzewski, J. Gao, N. Rega, 
 G. Zheng, W. Liang, M. Hada, M. Ehara, K. Toyota, R. Fukuda, 
 J. Hasegawa, M. Ishida, T. Nakajima, Y. Honda, O. Kitao, H. Nakai, 
 T. Vreven, K. Throssell, J. A. Montgomery, Jr., J. E. Peralta, 
 F. Ogliaro, M. J. Bearpark, J. J. Heyd, E. N. Brothers, K. N. Kudin, 
 V. N. Staroverov, T. A. Keith, R. Kobayashi, J. Normand, 
 K. Raghavachari, A. P. Rendell, J. C. Burant, S. S. Iyengar, 
 J. Tomasi, M. Cossi, J. M. Millam, M. Klene, C. Adamo, R. Cammi, 
 J. W. Ochterski, R. L. Martin, K. Morokuma, O. Farkas, 
 J. B. Foresman, and D. J. Fox, Gaussian, Inc., Wallingford CT, 2016.
 
 ******************************************
 Gaussian 16:  EM64L-G16RevB.01 20-Dec-2017
                12-Jun-2023 
 ******************************************
 ----------------------------------------------------------------------
 #P HF/6-311G # Opt( MaxCycle=10) # Gfinput IOP(6/7=3) Pop=full Density
  Test # Units(Ang,Deg)
 ----------------------------------------------------------------------
 1/6=10,18=20,19=15,38=1/1,3;
 2/9=110,12=2,17=6,18=5,40=1/2;
 3/5=4,6=6,11=9,24=10,25=1,30=1,71=1/1,2,3;
 4//1;
 5/5=2,38=5/2;
 6/7=3,22=-1,28=1/1;
 7//1,2,3,16;
 1/6=10,18=20,19=15/3(2);
 2/9=110/2;
 99//99;
 2/9=110/2;
 3/5=4,6=6,11=9,25=1,30=1,71=1/1,2,3;
 4/5=5,16=3,69=1/1;
 5/5=2,38=5/2;
 7//1,2,3,16;
 1/6=10,18=20,19=15/3(-5);
 2/9=110/2;
 6/7=3,19=2,22=-1,28=1/1;
 99/9=1/99;
 Leave Link    1 at Mon Jun 12 20:20:33 2023, MaxMem=           0 cpu:               0.0 elap:               0.0
 (Enter /home/linux-pohl-v2/Escritorio/Gaussian/g16/l101.exe)
 ----------------------------------
 Input file generated by gabedit...
 ----------------------------------
 Symbolic Z-matrix:
 Charge =  0 Multiplicity = 1
 C                    0    -3.7015    0.5141   -11.90649 
 O                    0     0.37015   0.47297  -11.7401 
 
 Add virtual bond connecting atoms O2         and C1         Dist= 7.70D+00.
 ITRead=  0  0
 MicOpt= -1 -1
 NAtoms=      2 NQM=        2 NQMF=       0 NMMI=      0 NMMIF=      0
                NMic=       0 NMicF=      0.
                    Isotopes and Nuclear Properties:
 (Nuclear quadrupole moments (NQMom) in fm**2, nuclear magnetic moments (NMagM)
  in nuclear magnetons)

  Atom         1           2
 IAtWgt=          12          16
 AtmWgt=  12.0000000  15.9949146
 NucSpn=           0           0
 AtZEff=  -0.0000000  -0.0000000
 NQMom=    0.0000000   0.0000000
 NMagM=    0.0000000   0.0000000
 AtZNuc=   6.0000000   8.0000000
 Leave Link  101 at Mon Jun 12 20:20:33 2023, MaxMem=   104857600 cpu:               0.2 elap:               0.2
 (Enter /home/linux-pohl-v2/Escritorio/Gaussian/g16/l103.exe)

 GradGradGradGradGradGradGradGradGradGradGradGradGradGradGradGradGradGrad
 Berny optimization.
 Initialization pass.
                           ----------------------------
                           !    Initial Parameters    !
                           ! (Angstroms and Degrees)  !
 --------------------------                            --------------------------
 ! Name  Definition              Value          Derivative Info.                !
 --------------------------------------------------------------------------------
 ! R1    R(1,2)                  4.0753         estimate D2E/DX2                !
 --------------------------------------------------------------------------------
 Trust Radius=3.00D-01 FncErr=1.00D-07 GrdErr=1.00D-07 EigMax=2.50D+02 EigMin=1.00D-04
 Number of steps in this run=     10 maximum allowed number of steps=    100.
 GradGradGradGradGradGradGradGradGradGradGradGradGradGradGradGradGradGrad

 Leave Link  103 at Mon Jun 12 20:20:33 2023, MaxMem=   104857600 cpu:               0.0 elap:               0.0
 (Enter /home/linux-pohl-v2/Escritorio/Gaussian/g16/l202.exe)
                          Input orientation:                          
 ---------------------------------------------------------------------
 Center     Atomic      Atomic             Coordinates (Angstroms)
 Number     Number       Type             X           Y           Z
 ---------------------------------------------------------------------
      1          6           0       -3.701499    0.514097  -11.906488
      2          8           0        0.370150    0.472969  -11.740097
 ---------------------------------------------------------------------
 Stoichiometry    CO
 Framework group  C*V[C*(CO)]
 Deg. of freedom     1
 Full point group                 C*V     NOp   4
 Largest Abelian subgroup         C2V     NOp   4
 Largest concise Abelian subgroup C1      NOp   1
                         Standard orientation:                         
 ---------------------------------------------------------------------
 Center     Atomic      Atomic             Coordinates (Angstroms)
 Number     Number       Type             X           Y           Z
 ---------------------------------------------------------------------
      1          6           0        0.000000    0.000000   -2.328717
      2          8           0       -0.000000   -0.000000    1.746538
 ---------------------------------------------------------------------
 Rotational constants (GHZ):           0.0000000           4.4383710           4.4383710
 Leave Link  202 at Mon Jun 12 20:20:33 2023, MaxMem=   104857600 cpu:               0.0 elap:               0.0
 (Enter /home/linux-pohl-v2/Escritorio/Gaussian/g16/l301.exe)
 Standard basis: 6-311G (5D, 7F)
 Ernie: Thresh=  0.10000D-02 Tol=  0.10000D-05 Strict=F.
 AO basis set in the form of general basis input (Overlap normalization):
      1 0
 S   6 1.00       0.000000000000
      0.4563240000D+04  0.1966650249D-02
      0.6820240000D+03  0.1523060193D-01
      0.1549730000D+03  0.7612690966D-01
      0.4445530000D+02  0.2608010331D+00
      0.1302900000D+02  0.6164620782D+00
      0.1827730000D+01  0.2210060280D+00
 SP   3 1.00       0.000000000000
      0.2096420000D+02  0.1146600807D+00  0.4024869267D-01
      0.4803310000D+01  0.9199996477D+00  0.2375939567D+00
      0.1459330000D+01 -0.3030682134D-02  0.8158538515D+00
 SP   1 1.00       0.000000000000
      0.4834560000D+00  0.1000000000D+01  0.1000000000D+01
 SP   1 1.00       0.000000000000
      0.1455850000D+00  0.1000000000D+01  0.1000000000D+01
 ****
      2 0
 S   6 1.00       0.000000000000
      0.8588500000D+04  0.1895150083D-02
      0.1297230000D+04  0.1438590063D-01
      0.2992960000D+03  0.7073200310D-01
      0.8737710000D+02  0.2400010105D+00
      0.2567890000D+02  0.5947970261D+00
      0.3740040000D+01  0.2808020123D+00
 SP   3 1.00       0.000000000000
      0.4211750000D+02  0.1138890124D+00  0.3651139738D-01
      0.9628370000D+01  0.9208111006D+00  0.2371529830D+00
      0.2853320000D+01 -0.3274470358D-02  0.8197019412D+00
 SP   1 1.00       0.000000000000
      0.9056610000D+00  0.1000000000D+01  0.1000000000D+01
 SP   1 1.00       0.000000000000
      0.2556110000D+00  0.1000000000D+01  0.1000000000D+01
 ****

 There are    14 symmetry adapted cartesian basis functions of A1  symmetry.
 There are     0 symmetry adapted cartesian basis functions of A2  symmetry.
 There are     6 symmetry adapted cartesian basis functions of B1  symmetry.
 There are     6 symmetry adapted cartesian basis functions of B2  symmetry.
 There are    14 symmetry adapted basis functions of A1  symmetry.
 There are     0 symmetry adapted basis functions of A2  symmetry.
 There are     6 symmetry adapted basis functions of B1  symmetry.
 There are     6 symmetry adapted basis functions of B2  symmetry.
    26 basis functions,    52 primitive gaussians,    26 cartesian basis functions
     7 alpha electrons        7 beta electrons
       nuclear repulsion energy         6.2328630532 Hartrees.
 IExCor=    0 DFT=F Ex=HF Corr=None ExCW=0 ScaHFX=  1.000000
 ScaDFX=  1.000000  1.000000  1.000000  1.000000 ScalE2=  1.000000  1.000000
 IRadAn=      5 IRanWt=     -1 IRanGd=            0 ICorTp=0 IEmpDi=  4
 NAtoms=    2 NActive=    2 NUniq=    2 SFac= 1.00D+00 NAtFMM=   60 NAOKFM=F Big=F
 Integral buffers will be    131072 words long.
 Raffenetti 1 integral format.
 Two-electron integral symmetry is turned on.
 Leave Link  301 at Mon Jun 12 20:20:33 2023, MaxMem=   104857600 cpu:               0.0 elap:               0.0
 (Enter /home/linux-pohl-v2/Escritorio/Gaussian/g16/l302.exe)
 NPDir=0 NMtPBC=     1 NCelOv=     1 NCel=       1 NClECP=     1 NCelD=      1
         NCelK=      1 NCelE2=     1 NClLst=     1 CellRange=     0.0.
 One-electron integrals computed using PRISM.
 One-electron integral symmetry used in STVInt
 NBasis=    26 RedAO= T EigKep=  9.43D-02  NBF=    14     0     6     6
 NBsUse=    26 1.00D-06 EigRej= -1.00D+00 NBFU=    14     0     6     6
 Leave Link  302 at Mon Jun 12 20:20:33 2023, MaxMem=   104857600 cpu:               0.1 elap:               0.1
 (Enter /home/linux-pohl-v2/Escritorio/Gaussian/g16/l303.exe)
 DipDrv:  MaxL=1.
 Leave Link  303 at Mon Jun 12 20:20:33 2023, MaxMem=   104857600 cpu:               0.0 elap:               0.0
 (Enter /home/linux-pohl-v2/Escritorio/Gaussian/g16/l401.exe)
 ExpMin= 1.46D-01 ExpMax= 8.59D+03 ExpMxC= 1.30D+03 IAcc=3 IRadAn=         5 AccDes= 0.00D+00
 Harris functional with IExCor=  205 and IRadAn=       5 diagonalized for initial guess.
 HarFok:  IExCor=  205 AccDes= 0.00D+00 IRadAn=         5 IDoV= 1 UseB2=F ITyADJ=14
 ICtDFT=  3500011 ScaDFX=  1.000000  1.000000  1.000000  1.000000
 FoFCou: FMM=F IPFlag=           0 FMFlag=      100000 FMFlg1=           0
         NFxFlg=           0 DoJE=T BraDBF=F KetDBF=T FulRan=T
         wScrn=  0.000000 ICntrl=       500 IOpCl=  0 I1Cent=   200000004 NGrid=           0
         NMat0=    1 NMatS0=      1 NMatT0=    0 NMatD0=    1 NMtDS0=    0 NMtDT0=    0
 Petite list used in FoFCou.
 Harris En= -112.414444951672    
 JPrj=0 DoOrth=F DoCkMO=F.
 Initial guess orbital symmetries:
       Occupied  (SG) (SG) (SG) (SG) (SG) (PI) (PI)
       Virtual   (SG) (PI) (PI) (SG) (PI) (PI) (SG) (PI) (PI) (SG)
                 (SG) (PI) (PI) (SG) (PI) (PI) (SG) (SG) (SG)
 The electronic state of the initial guess is 1-SG.
 Leave Link  401 at Mon Jun 12 20:20:33 2023, MaxMem=   104857600 cpu:               0.1 elap:               0.1
 (Enter /home/linux-pohl-v2/Escritorio/Gaussian/g16/l502.exe)
 Keep R1 ints in memory in symmetry-blocked form, NReq=868972.
 FoFCou: FMM=F IPFlag=           0 FMFlag=           0 FMFlg1=           0
         NFxFlg=           0 DoJE=F BraDBF=F KetDBF=F FulRan=T
         wScrn=  0.000000 ICntrl=       600 IOpCl=  0 I1Cent=           0 NGrid=           0
         NMat0=    1 NMatS0=    351 NMatT0=    0 NMatD0=    1 NMtDS0=    0 NMtDT0=    0
 Petite list used in FoFCou.
 Closed shell SCF:
 Using DIIS extrapolation, IDIIS=  1040.
 NGot=   104857600 LenX=   104835198 LenY=   104834081
 Requested convergence on RMS density matrix=1.00D-08 within 128 cycles.
 Requested convergence on MAX density matrix=1.00D-06.
 Requested convergence on             energy=1.00D-06.
 No special actions if energy rises.

 Cycle   1  Pass 1  IDiag  1:
 E= -110.694961848341    
 DIIS: error= 2.00D-01 at cycle   1 NSaved=   1.
 NSaved= 1 IEnMin= 1 EnMin= -110.694961848341     IErMin= 1 ErrMin= 2.00D-01
 ErrMax= 2.00D-01  0.00D+00 EMaxC= 1.00D-01 BMatC= 7.16D-01 BMatP= 7.16D-01
 IDIUse=3 WtCom= 0.00D+00 WtEn= 1.00D+00
 Coeff-Com:  0.100D+01
 Coeff-En:   0.100D+01
 Coeff:      0.100D+01
 Gap=    -0.088 Goal=   None    Shift=    0.000
 GapD=   -0.088 DampG=0.250 DampE=0.250 DampFc=0.2500 IDamp=-1.
 Damping current iteration by 2.50D-01
 RMSDP=5.27D-02 MaxDP=3.40D-01              OVMax= 0.00D+00

 Cycle   2  Pass 1  IDiag  1:
 E= -111.571857904615     Delta-E=       -0.876896056274 Rises=F Damp=T
 DIIS: error= 6.56D-02 at cycle   2 NSaved=   2.
 NSaved= 2 IEnMin= 2 EnMin= -111.571857904615     IErMin= 2 ErrMin= 6.56D-02
 ErrMax= 6.56D-02  0.00D+00 EMaxC= 1.00D-01 BMatC= 9.66D-02 BMatP= 7.16D-01
 IDIUse=3 WtCom= 3.44D-01 WtEn= 6.56D-01
 Coeff-Com: -0.212D+00 0.121D+01
 Coeff-En:   0.676D-01 0.932D+00
 Coeff:     -0.286D-01 0.103D+01
 Gap=     0.578 Goal=   None    Shift=    0.000
 RMSDP=1.40D-02 MaxDP=1.18D-01 DE=-8.77D-01 OVMax= 1.00D+00

 Cycle   3  Pass 1  IDiag  1:
 E= -111.030777840937     Delta-E=        0.541080063678 Rises=F Damp=F
 DIIS: error= 9.16D-02 at cycle   3 NSaved=   3.
 NSaved= 3 IEnMin= 2 EnMin= -111.571857904615     IErMin= 2 ErrMin= 6.56D-02
 ErrMax= 9.16D-02  0.00D+00 EMaxC= 1.00D-01 BMatC= 1.94D-01 BMatP= 9.66D-02
 IDIUse=2 WtCom= 0.00D+00 WtEn= 1.00D+00
 Coeff-En:   0.000D+00 0.861D+00 0.139D+00
 Coeff:      0.000D+00 0.861D+00 0.139D+00
 Gap=    -0.098 Goal=   None    Shift=    0.000
 RMSDP=4.85D-02 MaxDP=2.70D-01 DE= 5.41D-01 OVMax= 1.00D+00

 Cycle   4  Pass 1  IDiag  1:
 E= -104.296355897688     Delta-E=        6.734421943249 Rises=F Damp=F
 DIIS: error= 2.65D-01 at cycle   4 NSaved=   4.
 NSaved= 4 IEnMin= 2 EnMin= -111.571857904615     IErMin= 2 ErrMin= 6.56D-02
 ErrMax= 2.65D-01  0.00D+00 EMaxC= 1.00D-01 BMatC= 1.61D+00 BMatP= 9.66D-02
 IDIUse=2 WtCom= 0.00D+00 WtEn= 1.00D+00
 Coeff-En:   0.000D+00 0.000D+00 0.768D+00 0.232D+00
 Coeff:      0.000D+00 0.000D+00 0.768D+00 0.232D+00
 Gap=     0.001 Goal=   None    Shift=    0.000
 RMSDP=3.50D-02 MaxDP=1.55D-01 DE= 6.73D+00 OVMax= 7.63D-01

 Cycle   5  Pass 1  IDiag  1:
 E= -111.366926109981     Delta-E=       -7.070570212293 Rises=F Damp=F
 DIIS: error= 2.28D-01 at cycle   5 NSaved=   5.
 NSaved= 5 IEnMin= 2 EnMin= -111.571857904615     IErMin= 2 ErrMin= 6.56D-02
 ErrMax= 2.28D-01  0.00D+00 EMaxC= 1.00D-01 BMatC= 6.85D-01 BMatP= 9.66D-02
 IDIUse=2 WtCom= 0.00D+00 WtEn= 1.00D+00
 Coeff-En:   0.000D+00 0.000D+00 0.426D+00 0.000D+00 0.574D+00
 Coeff:      0.000D+00 0.000D+00 0.426D+00 0.000D+00 0.574D+00
 Gap=     0.090 Goal=   None    Shift=    0.000
 RMSDP=1.66D-02 MaxDP=7.64D-02 DE=-7.07D+00 OVMax= 3.87D-01

 Cycle   6  Pass 1  IDiag  1:
 E= -111.734664207120     Delta-E=       -0.367738097140 Rises=F Damp=F
 DIIS: error= 1.35D-01 at cycle   6 NSaved=   6.
 NSaved= 6 IEnMin= 6 EnMin= -111.734664207120     IErMin= 2 ErrMin= 6.56D-02
 ErrMax= 1.35D-01  0.00D+00 EMaxC= 1.00D-01 BMatC= 1.44D-01 BMatP= 9.66D-02
 IDIUse=2 WtCom= 0.00D+00 WtEn= 1.00D+00
 Coeff-En:   0.000D+00 0.000D+00 0.000D+00 0.000D+00 0.332D+00 0.668D+00
 Coeff:      0.000D+00 0.000D+00 0.000D+00 0.000D+00 0.332D+00 0.668D+00
 Gap=     0.095 Goal=   None    Shift=    0.000
 RMSDP=1.30D-02 MaxDP=1.08D-01 DE=-3.68D-01 OVMax= 4.48D-01

 Cycle   7  Pass 1  IDiag  1:
 E= -111.945686370024     Delta-E=       -0.211022162904 Rises=F Damp=F
 DIIS: error= 9.08D-02 at cycle   7 NSaved=   7.
 NSaved= 7 IEnMin= 7 EnMin= -111.945686370024     IErMin= 2 ErrMin= 6.56D-02
 ErrMax= 9.08D-02  0.00D+00 EMaxC= 1.00D-01 BMatC= 9.52D-02 BMatP= 9.66D-02
 IDIUse=3 WtCom= 9.22D-02 WtEn= 9.08D-01
 Coeff-Com: -0.421D+00 0.632D+00 0.304D+00-0.699D-01 0.469D+00 0.644D+00
 Coeff-Com: -0.558D+00
 Coeff-En:   0.000D+00 0.000D+00 0.000D+00 0.000D+00 0.000D+00 0.189D+00
 Coeff-En:   0.811D+00
 Coeff:     -0.388D-01 0.582D-01 0.280D-01-0.644D-02 0.432D-01 0.231D+00
 Coeff:      0.684D+00
 Gap=     0.150 Goal=   None    Shift=    0.000
 RMSDP=1.12D-02 MaxDP=6.23D-02 DE=-2.11D-01 OVMax= 2.70D-01

 Cycle   8  Pass 1  IDiag  1:
 E= -112.119973263909     Delta-E=       -0.174286893885 Rises=F Damp=F
 DIIS: error= 8.86D-02 at cycle   8 NSaved=   8.
 NSaved= 8 IEnMin= 8 EnMin= -112.119973263909     IErMin= 2 ErrMin= 6.56D-02
 ErrMax= 8.86D-02  0.00D+00 EMaxC= 1.00D-01 BMatC= 4.02D-02 BMatP= 9.52D-02
 IDIUse=3 WtCom= 1.14D-01 WtEn= 8.86D-01
 Coeff-Com: -0.352D+00 0.521D+00-0.390D-01-0.123D+00 0.823D+00 0.210D+01
 Coeff-Com: -0.504D+00-0.143D+01
 Coeff-En:   0.000D+00 0.000D+00 0.000D+00 0.000D+00 0.000D+00 0.000D+00
 Coeff-En:   0.000D+00 0.100D+01
 Coeff:     -0.400D-01 0.593D-01-0.444D-02-0.140D-01 0.937D-01 0.239D+00
 Coeff:     -0.573D-01 0.724D+00
 Gap=     0.172 Goal=   None    Shift=    0.000
 RMSDP=1.06D-02 MaxDP=7.36D-02 DE=-1.74D-01 OVMax= 3.48D-01

 Cycle   9  Pass 1  IDiag  1:
 E= -112.202530821561     Delta-E=       -0.082557557652 Rises=F Damp=F
 DIIS: error= 5.60D-02 at cycle   9 NSaved=   9.
 NSaved= 9 IEnMin= 9 EnMin= -112.202530821561     IErMin= 9 ErrMin= 5.60D-02
 ErrMax= 5.60D-02  0.00D+00 EMaxC= 1.00D-01 BMatC= 5.00D-02 BMatP= 4.02D-02
 IDIUse=2 WtCom= 0.00D+00 WtEn= 1.00D+00
 Coeff-En:   0.000D+00 0.000D+00 0.000D+00 0.000D+00 0.000D+00 0.000D+00
 Coeff-En:   0.000D+00 0.000D+00 0.100D+01
 Coeff:      0.000D+00 0.000D+00 0.000D+00 0.000D+00 0.000D+00 0.000D+00
 Coeff:      0.000D+00 0.000D+00 0.100D+01
 Gap=     0.229 Goal=   None    Shift=    0.000
 RMSDP=8.88D-03 MaxDP=8.87D-02 DE=-8.26D-02 OVMax= 1.26D-01

 Cycle  10  Pass 1  IDiag  1:
 E= -112.268654667918     Delta-E=       -0.066123846357 Rises=F Damp=F
 DIIS: error= 2.13D-02 at cycle  10 NSaved=  10.
 NSaved=10 IEnMin=10 EnMin= -112.268654667918     IErMin=10 ErrMin= 2.13D-02
 ErrMax= 2.13D-02  0.00D+00 EMaxC= 1.00D-01 BMatC= 7.27D-03 BMatP= 4.02D-02
 IDIUse=3 WtCom= 7.87D-01 WtEn= 2.13D-01
 Coeff-Com: -0.941D-01 0.120D+00 0.269D+00-0.167D-01 0.152D+00-0.325D+00
 Coeff-Com: -0.105D+01 0.262D+00 0.101D+01 0.674D+00
 Coeff-En:   0.000D+00 0.000D+00 0.000D+00 0.000D+00 0.000D+00 0.000D+00
 Coeff-En:   0.000D+00 0.000D+00 0.000D+00 0.100D+01
 Coeff:     -0.741D-01 0.944D-01 0.212D+00-0.132D-01 0.119D+00-0.256D+00
 Coeff:     -0.826D+00 0.206D+00 0.794D+00 0.743D+00
 Gap=     0.435 Goal=   None    Shift=    0.000
 RMSDP=5.50D-03 MaxDP=4.45D-02 DE=-6.61D-02 OVMax= 1.39D-01

 Cycle  11  Pass 1  IDiag  1:
 E= -112.272747487260     Delta-E=       -0.004092819342 Rises=F Damp=F
 DIIS: error= 1.13D-02 at cycle  11 NSaved=  11.
 NSaved=11 IEnMin=11 EnMin= -112.272747487260     IErMin=11 ErrMin= 1.13D-02
 ErrMax= 1.13D-02  0.00D+00 EMaxC= 1.00D-01 BMatC= 2.99D-03 BMatP= 7.27D-03
 IDIUse=3 WtCom= 8.87D-01 WtEn= 1.13D-01
 Coeff-Com:  0.624D-02-0.156D-01 0.897D-01-0.527D-02 0.655D-01-0.318D+00
 Coeff-Com: -0.415D+00 0.477D+00 0.211D+00 0.107D+00 0.797D+00
 Coeff-En:   0.000D+00 0.000D+00 0.000D+00 0.000D+00 0.000D+00 0.000D+00
 Coeff-En:   0.000D+00 0.000D+00 0.000D+00 0.000D+00 0.100D+01
 Coeff:      0.553D-02-0.139D-01 0.795D-01-0.468D-02 0.581D-01-0.282D+00
 Coeff:     -0.368D+00 0.424D+00 0.188D+00 0.947D-01 0.820D+00
 Gap=     0.456 Goal=   None    Shift=    0.000
 RMSDP=1.41D-03 MaxDP=1.41D-02 DE=-4.09D-03 OVMax= 1.41D-02

 Cycle  12  Pass 1  IDiag  1:
 E= -112.275943908611     Delta-E=       -0.003196421351 Rises=F Damp=F
 DIIS: error= 6.40D-03 at cycle  12 NSaved=  12.
 NSaved=12 IEnMin=12 EnMin= -112.275943908611     IErMin=12 ErrMin= 6.40D-03
 ErrMax= 6.40D-03  0.00D+00 EMaxC= 1.00D-01 BMatC= 5.76D-04 BMatP= 2.99D-03
 IDIUse=3 WtCom= 9.36D-01 WtEn= 6.40D-02
 Coeff-Com:  0.353D-01-0.526D-01 0.588D-01 0.152D-02 0.270D-01-0.394D+00
 Coeff-Com: -0.419D+00 0.553D+00 0.314D+00-0.754D-01 0.825D-01 0.869D+00
 Coeff-En:   0.000D+00 0.000D+00 0.000D+00 0.000D+00 0.000D+00 0.000D+00
 Coeff-En:   0.000D+00 0.000D+00 0.000D+00 0.000D+00 0.000D+00 0.100D+01
 Coeff:      0.331D-01-0.492D-01 0.550D-01 0.142D-02 0.252D-01-0.368D+00
 Coeff:     -0.392D+00 0.517D+00 0.294D+00-0.706D-01 0.772D-01 0.877D+00
 Gap=     0.498 Goal=   None    Shift=    0.000
 RMSDP=8.79D-04 MaxDP=1.19D-02 DE=-3.20D-03 OVMax= 7.22D-03

 Cycle  13  Pass 1  IDiag  1:
 E= -112.275141465765     Delta-E=        0.000802442846 Rises=F Damp=F
 DIIS: error= 7.15D-03 at cycle  13 NSaved=  13.
 NSaved=13 IEnMin=12 EnMin= -112.275943908611     IErMin=12 ErrMin= 6.40D-03
 ErrMax= 7.15D-03  0.00D+00 EMaxC= 1.00D-01 BMatC= 1.02D-03 BMatP= 5.76D-04
 IDIUse=3 WtCom= 9.36D-01 WtEn= 6.40D-02
 Rare condition: small coef for last iteration:  0.000D+00
 Coeff-Com:  0.209D-01-0.217D-01 0.482D-01 0.270D-02-0.215D-02-0.299D+00
 Coeff-Com: -0.214D+00 0.409D+00 0.110D+00-0.321D+00-0.169D+01 0.575D+01
 Coeff-Com: -0.279D+01
 Coeff-En:   0.000D+00 0.000D+00 0.000D+00 0.000D+00 0.000D+00 0.000D+00
 Coeff-En:   0.000D+00 0.000D+00 0.000D+00 0.000D+00 0.000D+00 0.000D+00
 Coeff-En:   0.100D+01
 Coeff:      0.209D-01-0.217D-01 0.482D-01 0.270D-02-0.215D-02-0.299D+00
 Coeff:     -0.214D+00 0.409D+00 0.110D+00-0.321D+00-0.169D+01 0.575D+01
 Coeff:     -0.279D+01
 Gap=     0.462 Goal=   None    Shift=    0.000
 RMSDP=5.18D-04 MaxDP=5.63D-03 DE= 8.02D-04 OVMax= 9.62D-03

 Cycle  14  Pass 1  IDiag  1:
 E= -112.276352026871     Delta-E=       -0.001210561106 Rises=F Damp=F
 DIIS: error= 5.36D-03 at cycle  14 NSaved=  14.
 NSaved=14 IEnMin=14 EnMin= -112.276352026871     IErMin=14 ErrMin= 5.36D-03
 ErrMax= 5.36D-03  0.00D+00 EMaxC= 1.00D-01 BMatC= 5.55D-04 BMatP= 5.76D-04
 IDIUse=3 WtCom= 9.46D-01 WtEn= 5.36D-02
 Coeff-Com:  0.538D-02-0.901D-02 0.143D-01 0.903D-03-0.845D-03-0.752D-01
 Coeff-Com: -0.541D-01 0.101D+00 0.765D-01 0.611D-04 0.163D+00-0.459D+00
 Coeff-Com: -0.151D+01 0.274D+01
 Coeff-En:   0.000D+00 0.000D+00 0.000D+00 0.000D+00 0.000D+00 0.000D+00
 Coeff-En:   0.000D+00 0.000D+00 0.000D+00 0.000D+00 0.000D+00 0.000D+00
 Coeff-En:   0.000D+00 0.100D+01
 Coeff:      0.509D-02-0.853D-02 0.136D-01 0.854D-03-0.800D-03-0.712D-01
 Coeff:     -0.512D-01 0.955D-01 0.724D-01 0.578D-04 0.154D+00-0.434D+00
 Coeff:     -0.143D+01 0.265D+01
 Gap=     0.389 Goal=   None    Shift=    0.000
 RMSDP=1.01D-03 MaxDP=7.76D-03 DE=-1.21D-03 OVMax= 1.77D-02

 Cycle  15  Pass 1  IDiag  1:
 E= -112.277801649206     Delta-E=       -0.001449622335 Rises=F Damp=F
 DIIS: error= 1.49D-03 at cycle  15 NSaved=  15.
 NSaved=15 IEnMin=15 EnMin= -112.277801649206     IErMin=15 ErrMin= 1.49D-03
 ErrMax= 1.49D-03  0.00D+00 EMaxC= 1.00D-01 BMatC= 3.61D-05 BMatP= 5.55D-04
 IDIUse=3 WtCom= 9.85D-01 WtEn= 1.49D-02
 Coeff-Com: -0.149D-02 0.201D-02 0.139D-02-0.202D-03-0.284D-02 0.219D-02
 Coeff-Com:  0.193D-01-0.576D-02-0.238D-01 0.552D-02 0.219D-01-0.116D-01
 Coeff-Com:  0.237D+00-0.736D+00 0.149D+01
 Coeff-En:   0.000D+00 0.000D+00 0.000D+00 0.000D+00 0.000D+00 0.000D+00
 Coeff-En:   0.000D+00 0.000D+00 0.000D+00 0.000D+00 0.000D+00 0.000D+00
 Coeff-En:   0.000D+00 0.000D+00 0.100D+01
 Coeff:     -0.147D-02 0.198D-02 0.137D-02-0.199D-03-0.279D-02 0.216D-02
 Coeff:      0.190D-01-0.568D-02-0.235D-01 0.544D-02 0.216D-01-0.115D-01
 Coeff:      0.233D+00-0.725D+00 0.149D+01
 Gap=     0.364 Goal=   None    Shift=    0.000
 RMSDP=3.99D-04 MaxDP=2.83D-03 DE=-1.45D-03 OVMax= 7.70D-03

 Cycle  16  Pass 1  IDiag  1:
 E= -112.277913006372     Delta-E=       -0.000111357166 Rises=F Damp=F
 DIIS: error= 3.68D-04 at cycle  16 NSaved=  16.
 NSaved=16 IEnMin=16 EnMin= -112.277913006372     IErMin=16 ErrMin= 3.68D-04
 ErrMax= 3.68D-04  0.00D+00 EMaxC= 1.00D-01 BMatC= 1.58D-06 BMatP= 3.61D-05
 IDIUse=3 WtCom= 9.96D-01 WtEn= 3.68D-03
 Coeff-Com: -0.630D-04 0.922D-04-0.202D-03-0.251D-04 0.260D-03 0.139D-02
 Coeff-Com: -0.643D-03-0.241D-02 0.227D-03 0.143D-02-0.372D-02-0.358D-01
 Coeff-Com:  0.404D-01 0.349D-01-0.109D+00 0.107D+01
 Coeff-En:   0.000D+00 0.000D+00 0.000D+00 0.000D+00 0.000D+00 0.000D+00
 Coeff-En:   0.000D+00 0.000D+00 0.000D+00 0.000D+00 0.000D+00 0.000D+00
 Coeff-En:   0.000D+00 0.000D+00 0.000D+00 0.100D+01
 Coeff:     -0.627D-04 0.918D-04-0.201D-03-0.250D-04 0.259D-03 0.139D-02
 Coeff:     -0.640D-03-0.240D-02 0.226D-03 0.142D-02-0.370D-02-0.357D-01
 Coeff:      0.402D-01 0.348D-01-0.108D+00 0.107D+01
 Gap=     0.366 Goal=   None    Shift=    0.000
 RMSDP=5.21D-05 MaxDP=6.49D-04 DE=-1.11D-04 OVMax= 7.08D-04

 Cycle  17  Pass 1  IDiag  1:
 E= -112.277915029219     Delta-E=       -0.000002022846 Rises=F Damp=F
 DIIS: error= 1.97D-05 at cycle  17 NSaved=  17.
 NSaved=17 IEnMin=17 EnMin= -112.277915029219     IErMin=17 ErrMin= 1.97D-05
 ErrMax= 1.97D-05  0.00D+00 EMaxC= 1.00D-01 BMatC= 5.10D-09 BMatP= 1.58D-06
 IDIUse=1 WtCom= 1.00D+00 WtEn= 0.00D+00
 Coeff-Com:  0.304D-05 0.206D-05-0.782D-07 0.446D-06-0.633D-04-0.948D-04
 Coeff-Com:  0.262D-03 0.194D-03-0.155D-03-0.352D-03-0.110D-02 0.161D-01
 Coeff-Com: -0.749D-02-0.202D-01 0.453D-01-0.281D+00 0.125D+01
 Coeff:      0.304D-05 0.206D-05-0.782D-07 0.446D-06-0.633D-04-0.948D-04
 Coeff:      0.262D-03 0.194D-03-0.155D-03-0.352D-03-0.110D-02 0.161D-01
 Coeff:     -0.749D-02-0.202D-01 0.453D-01-0.281D+00 0.125D+01
 Gap=     0.366 Goal=   None    Shift=    0.000
 RMSDP=4.74D-06 MaxDP=4.00D-05 DE=-2.02D-06 OVMax= 1.03D-04

 Cycle  18  Pass 1  IDiag  1:
 E= -112.277915048124     Delta-E=       -0.000000018905 Rises=F Damp=F
 DIIS: error= 9.61D-07 at cycle  18 NSaved=  18.
 NSaved=18 IEnMin=18 EnMin= -112.277915048124     IErMin=18 ErrMin= 9.61D-07
 ErrMax= 9.61D-07  0.00D+00 EMaxC= 1.00D-01 BMatC= 2.34D-11 BMatP= 5.10D-09
 IDIUse=1 WtCom= 1.00D+00 WtEn= 0.00D+00
 Coeff-Com:  0.381D-05-0.501D-05 0.233D-07 0.617D-06 0.119D-04-0.163D-04
 Coeff-Com: -0.876D-04 0.269D-04 0.674D-04 0.563D-05 0.584D-04-0.195D-02
 Coeff-Com:  0.413D-03 0.356D-02-0.798D-02 0.299D-01-0.193D+00 0.117D+01
 Coeff:      0.381D-05-0.501D-05 0.233D-07 0.617D-06 0.119D-04-0.163D-04
 Coeff:     -0.876D-04 0.269D-04 0.674D-04 0.563D-05 0.584D-04-0.195D-02
 Coeff:      0.413D-03 0.356D-02-0.798D-02 0.299D-01-0.193D+00 0.117D+01
 Gap=     0.366 Goal=   None    Shift=    0.000
 RMSDP=3.28D-07 MaxDP=3.55D-06 DE=-1.89D-08 OVMax= 3.09D-06

 Cycle  19  Pass 1  IDiag  1:
 E= -112.277915048123     Delta-E=        0.000000000001 Rises=F Damp=F
 DIIS: error= 1.13D-06 at cycle  19 NSaved=  19.
 NSaved=19 IEnMin=18 EnMin= -112.277915048124     IErMin=18 ErrMin= 9.61D-07
 ErrMax= 1.13D-06  0.00D+00 EMaxC= 1.00D-01 BMatC= 1.81D-11 BMatP= 2.34D-11
 IDIUse=1 WtCom= 1.00D+00 WtEn= 0.00D+00
 Coeff-Com:  0.903D-06-0.133D-05-0.449D-06 0.243D-06-0.317D-06-0.445D-05
 Coeff-Com: -0.596D-05 0.834D-05 0.169D-04-0.508D-05-0.454D-04 0.373D-03
 Coeff-Com: -0.216D-03-0.280D-03 0.665D-03-0.187D-02 0.348D-01-0.363D+00
 Coeff-Com:  0.133D+01
 Coeff:      0.903D-06-0.133D-05-0.449D-06 0.243D-06-0.317D-06-0.445D-05
 Coeff:     -0.596D-05 0.834D-05 0.169D-04-0.508D-05-0.454D-04 0.373D-03
 Coeff:     -0.216D-03-0.280D-03 0.665D-03-0.187D-02 0.348D-01-0.363D+00
 Coeff:      0.133D+01
 Gap=     0.366 Goal=   None    Shift=    0.000
 RMSDP=2.08D-07 MaxDP=1.84D-06 DE= 5.68D-13 OVMax= 4.79D-06

 Cycle  20  Pass 1  IDiag  1:
 E= -112.277915048163     Delta-E=       -0.000000000040 Rises=F Damp=F
 DIIS: error= 2.40D-07 at cycle  20 NSaved=  20.
 NSaved=20 IEnMin=20 EnMin= -112.277915048163     IErMin=20 ErrMin= 2.40D-07
 ErrMax= 2.40D-07  0.00D+00 EMaxC= 1.00D-01 BMatC= 7.13D-13 BMatP= 1.81D-11
 IDIUse=1 WtCom= 1.00D+00 WtEn= 0.00D+00
 Large coefficients: NSaved= 20 BigCof=    0.00 CofMax=   10.00 Det=-5.79D-15
 Inversion failed.  Reducing to 19 matrices.
 Large coefficients: NSaved= 19 BigCof=    0.00 CofMax=   10.00 Det=-7.38D-15
 Inversion failed.  Reducing to 18 matrices.
 Large coefficients: NSaved= 18 BigCof=    0.00 CofMax=   10.00 Det=-7.40D-15
 Inversion failed.  Reducing to 17 matrices.
 Large coefficients: NSaved= 17 BigCof=    0.00 CofMax=   10.00 Det=-7.74D-15
 Inversion failed.  Reducing to 16 matrices.
 Large coefficients: NSaved= 16 BigCof=    0.00 CofMax=   10.00 Det=-7.78D-15
 Inversion failed.  Reducing to 15 matrices.
 Coeff-Com: -0.599D-07-0.249D-06 0.227D-06 0.676D-06-0.460D-06 0.318D-05
 Coeff-Com:  0.596D-05-0.238D-04 0.417D-04-0.643D-04-0.299D-04 0.204D-02
 Coeff-Com:  0.843D-02-0.146D+00 0.114D+01
 Coeff:     -0.599D-07-0.249D-06 0.227D-06 0.676D-06-0.460D-06 0.318D-05
 Coeff:      0.596D-05-0.238D-04 0.417D-04-0.643D-04-0.299D-04 0.204D-02
 Coeff:      0.843D-02-0.146D+00 0.114D+01
 Gap=     0.366 Goal=   None    Shift=    0.000
 RMSDP=4.04D-08 MaxDP=3.88D-07 DE=-3.99D-11 OVMax= 8.39D-07

 Cycle  21  Pass 1  IDiag  1:
 E= -112.277915048164     Delta-E=       -0.000000000001 Rises=F Damp=F
 DIIS: error= 5.76D-09 at cycle  21 NSaved=  16.
 NSaved=16 IEnMin=16 EnMin= -112.277915048164     IErMin=16 ErrMin= 5.76D-09
 ErrMax= 5.76D-09  0.00D+00 EMaxC= 1.00D-01 BMatC= 1.79D-16 BMatP= 7.13D-13
 IDIUse=1 WtCom= 1.00D+00 WtEn= 0.00D+00
 Large coefficients: NSaved= 16 BigCof=    0.00 CofMax=   10.00 Det=-3.68D-17
 Inversion failed.  Reducing to 15 matrices.
 Coeff-Com: -0.203D-07 0.123D-07 0.679D-07 0.117D-06-0.130D-05 0.164D-05
 Coeff-Com:  0.269D-05-0.112D-04 0.250D-04-0.615D-04-0.138D-03-0.423D-02
 Coeff-Com:  0.465D-01-0.363D+00 0.132D+01
 Coeff:     -0.203D-07 0.123D-07 0.679D-07 0.117D-06-0.130D-05 0.164D-05
 Coeff:      0.269D-05-0.112D-04 0.250D-04-0.615D-04-0.138D-03-0.423D-02
 Coeff:      0.465D-01-0.363D+00 0.132D+01
 Gap=     0.366 Goal=   None    Shift=    0.000
 RMSDP=1.40D-09 MaxDP=1.32D-08 DE=-1.24D-12 OVMax= 4.70D-08

 SCF Done:  E(RHF) =  -112.277915048     A.U. after   21 cycles
            NFock= 21  Conv=0.14D-08     -V/T= 1.9995
 KE= 1.123311321677D+02 PE=-2.783154733631D+02 EE= 4.747356309405D+01
 Leave Link  502 at Mon Jun 12 20:20:34 2023, MaxMem=   104857600 cpu:               0.1 elap:               0.1
 (Enter /home/linux-pohl-v2/Escritorio/Gaussian/g16/l601.exe)
 Copying SCF densities to generalized density rwf, IOpCl= 0 IROHF=0.

 **********************************************************************

            Population analysis using the SCF Density.

 **********************************************************************

 Orbital symmetries:
       Occupied  (SG) (SG) (SG) (SG) (PI) (PI) (SG)
       Virtual   (SG) (PI) (PI) (SG) (PI) (PI) (SG) (PI) (PI) (SG)
                 (SG) (PI) (PI) (SG) (SG) (PI) (PI) (SG) (SG)
 The electronic state is 1-SG.
 Alpha  occ. eigenvalues --  -20.68697 -11.35945  -1.24710  -0.72368  -0.57199
 Alpha  occ. eigenvalues --   -0.57199  -0.35743
 Alpha virt. eigenvalues --    0.00844   0.04394   0.04394   0.58354   0.61589
 Alpha virt. eigenvalues --    0.61589   0.61728   0.95916   0.95916   1.00823
 Alpha virt. eigenvalues --    1.05824   2.93055   2.93055   2.95942   5.19053
 Alpha virt. eigenvalues --    5.21787   5.21787  24.20236  51.19420
     Molecular Orbital Coefficients:
                           1         2         3         4         5
                           O         O         O         O         O
     Eigenvalues --   -20.68697 -11.35945  -1.24710  -0.72368  -0.57199
   1 1   C  1S         -0.00000   0.56388  -0.00007  -0.12293   0.00000
   2        2S          0.00000   0.46712  -0.00009  -0.20834   0.00000
   3        2PX         0.00000   0.00000   0.00000   0.00000   0.00021
   4        2PY         0.00000   0.00000   0.00000   0.00000   0.00000
   5        2PZ         0.00000   0.00005   0.00023   0.00060   0.00000
   6        3S         -0.00000   0.00120   0.00003   0.59950   0.00000
   7        3PX         0.00000   0.00000   0.00000   0.00000  -0.00056
   8        3PY         0.00000   0.00000   0.00000   0.00000   0.00000
   9        3PZ         0.00000  -0.00002   0.00012   0.00108   0.00000
  10        4S          0.00000   0.00045   0.00082   0.51837   0.00000
  11        4PX         0.00000   0.00000   0.00000   0.00000   0.00163
  12        4PY         0.00000   0.00000   0.00000   0.00000   0.00000
  13        4PZ         0.00000   0.00001   0.00079   0.00194   0.00000
  14 2   O  1S          0.55157   0.00000  -0.12694   0.00030   0.00000
  15        2S          0.47188   0.00000  -0.21380   0.00054   0.00000
  16        2PX         0.00000   0.00000   0.00000   0.00000   0.31294
  17        2PY         0.00000   0.00000   0.00000   0.00000   0.00000
  18        2PZ        -0.00001  -0.00000   0.00042  -0.00053   0.00000
  19        3S          0.00467  -0.00000   0.64249  -0.00215   0.00000
  20        3PX         0.00000   0.00000   0.00000   0.00000   0.47055
  21        3PY         0.00000   0.00000   0.00000   0.00000   0.00000
  22        3PZ         0.00001   0.00000   0.00065  -0.00014   0.00000
  23        4S         -0.00007   0.00000   0.48151   0.00001   0.00000
  24        4PX         0.00000   0.00000   0.00000   0.00000   0.43602
  25        4PY         0.00000   0.00000   0.00000   0.00000   0.00000
  26        4PZ        -0.00000  -0.00000   0.00133  -0.00242   0.00000
                           6         7         8         9        10
                           O         O         V         V         V
     Eigenvalues --    -0.57199  -0.35743   0.00844   0.04394   0.04394
   1 1   C  1S          0.00000   0.00057  -0.00199   0.00000   0.00000
   2        2S          0.00000   0.00105  -0.00415   0.00000   0.00000
   3        2PX         0.00000   0.00000   0.00000   0.00000   0.21942
   4        2PY         0.00021   0.00000   0.00000   0.21942   0.00000
   5        2PZ         0.00000   0.28391   0.01178   0.00000   0.00000
   6        3S          0.00000  -0.00445   0.02201   0.00000   0.00000
   7        3PX         0.00000   0.00000   0.00000   0.00000   0.29817
   8        3PY        -0.00056   0.00000   0.00000   0.29817   0.00000
   9        3PZ         0.00000   0.43760   0.03692   0.00000   0.00000
  10        4S          0.00000   0.00070  -0.01416   0.00000   0.00000
  11        4PX         0.00000   0.00000   0.00000   0.00000   0.67321
  12        4PY         0.00163   0.00000   0.00000   0.67321   0.00000
  13        4PZ         0.00000   0.48335  -0.01253   0.00000   0.00000
  14 2   O  1S          0.00000   0.00089   0.00036   0.00000   0.00000
  15        2S          0.00000   0.00165   0.00066   0.00000   0.00000
  16        2PX         0.00000   0.00000   0.00000   0.00000  -0.00100
  17        2PY         0.31294   0.00000   0.00000  -0.00100   0.00000
  18        2PZ         0.00000  -0.00460   0.25598   0.00000   0.00000
  19        3S          0.00000  -0.00733  -0.00286   0.00000   0.00000
  20        3PX         0.00000   0.00000   0.00000   0.00000  -0.00268
  21        3PY         0.47055   0.00000   0.00000  -0.00268   0.00000
  22        3PZ         0.00000  -0.00418   0.36882   0.00000   0.00000
  23        4S          0.00000   0.00181   0.00070   0.00000   0.00000
  24        4PX         0.00000   0.00000   0.00000   0.00000   0.00114
  25        4PY         0.43602   0.00000   0.00000   0.00114   0.00000
  26        4PZ         0.00000  -0.01593   0.59044   0.00000   0.00000
                          11        12        13        14        15
                           V         V         V         V         V
     Eigenvalues --     0.58354   0.61589   0.61589   0.61728   0.95916
   1 1   C  1S          0.01082   0.00000   0.00000  -0.11560   0.00000
   2        2S          0.02342   0.00000   0.00000  -0.24982   0.00000
   3        2PX         0.00000  -0.24245   0.00000   0.00000   0.00000
   4        2PY         0.00000   0.00000  -0.24245   0.00000   0.00561
   5        2PZ        -0.21697   0.00000   0.00000  -0.02202   0.00000
   6        3S         -0.15115   0.00000   0.00000   1.62318   0.00000
   7        3PX         0.00000  -0.98673   0.00000   0.00000   0.00000
   8        3PY         0.00000   0.00000  -0.98673   0.00000   0.01487
   9        3PZ        -0.88650   0.00000   0.00000  -0.08911   0.00000
  10        4S          0.14114   0.00000   0.00000  -1.52753   0.00000
  11        4PX         0.00000   1.09023   0.00000   0.00000   0.00000
  12        4PY         0.00000   0.00000   1.09023   0.00000  -0.02259
  13        4PZ         1.16472   0.00000   0.00000   0.12020   0.00000
  14 2   O  1S          0.00685   0.00000   0.00000  -0.00233   0.00000
  15        2S          0.01381   0.00000   0.00000  -0.00473   0.00000
  16        2PX         0.00000  -0.00368   0.00000   0.00000   0.00000
  17        2PY         0.00000   0.00000  -0.00368   0.00000  -0.23581
  18        2PZ         0.03289   0.00000   0.00000  -0.01246   0.00000
  19        3S         -0.08225   0.00000   0.00000   0.02872   0.00000
  20        3PX         0.00000  -0.01331   0.00000   0.00000   0.00000
  21        3PY         0.00000   0.00000  -0.01331   0.00000  -0.80493
  22        3PZ         0.10322   0.00000   0.00000  -0.04160   0.00000
  23        4S          0.06825   0.00000   0.00000  -0.02496   0.00000
  24        4PX         0.00000   0.01559   0.00000   0.00000   0.00000
  25        4PY         0.00000   0.00000   0.01559   0.00000   1.15466
  26        4PZ        -0.07001   0.00000   0.00000   0.03265   0.00000
                          16        17        18        19        20
                           V         V         V         V         V
     Eigenvalues --     0.95916   1.00823   1.05824   2.93055   2.93055
   1 1   C  1S          0.00000   0.00627   0.00419   0.00000   0.00000
   2        2S          0.00000   0.01318   0.00874   0.00000   0.00000
   3        2PX         0.00561   0.00000   0.00000   0.00000  -1.32014
   4        2PY         0.00000   0.00000   0.00000  -1.32014   0.00000
   5        2PZ         0.00000  -0.03461  -0.02758   0.00000   0.00000
   6        3S          0.00000  -0.09177  -0.06117   0.00000   0.00000
   7        3PX         0.01487   0.00000   0.00000   0.00000   1.41735
   8        3PY         0.00000   0.00000   0.00000   1.41735   0.00000
   9        3PZ         0.00000  -0.08185  -0.05792   0.00000   0.00000
  10        4S          0.00000   0.09304   0.06219   0.00000   0.00000
  11        4PX        -0.02259   0.00000   0.00000   0.00000  -0.55520
  12        4PY         0.00000   0.00000   0.00000  -0.55520   0.00000
  13        4PZ         0.00000   0.14321   0.10499   0.00000   0.00000
  14 2   O  1S          0.00000   0.01736  -0.11508   0.00000   0.00000
  15        2S          0.00000   0.03547  -0.23516   0.00000   0.00000
  16        2PX        -0.23581   0.00000   0.00000   0.00000  -0.00220
  17        2PY         0.00000   0.00000   0.00000  -0.00220   0.00000
  18        2PZ         0.00000  -0.25632  -0.03671   0.00000   0.00000
  19        3S          0.00000  -0.22834   1.52229   0.00000   0.00000
  20        3PX        -0.80493   0.00000   0.00000   0.00000  -0.00076
  21        3PY         0.00000   0.00000   0.00000  -0.00076   0.00000
  22        3PZ         0.00000  -0.86873  -0.12343   0.00000   0.00000
  23        4S          0.00000   0.21786  -1.46473   0.00000   0.00000
  24        4PX         1.15466   0.00000   0.00000   0.00000   0.00412
  25        4PY         0.00000   0.00000   0.00000   0.00412   0.00000
  26        4PZ         0.00000   1.07438   0.15809   0.00000   0.00000
                          21        22        23        24        25
                           V         V         V         V         V
     Eigenvalues --     2.95942   5.19053   5.21787   5.21787  24.20236
   1 1   C  1S         -0.00005  -0.00122   0.00000   0.00000  -2.02320
   2        2S         -0.00017  -0.00116   0.00000   0.00000   2.14961
   3        2PX         0.00000   0.00000   0.00263   0.00000   0.00000
   4        2PY         0.00000   0.00000   0.00000   0.00263   0.00000
   5        2PZ        -1.31141  -0.02294   0.00000   0.00000   0.00008
   6        3S          0.00148   0.01297   0.00000   0.00000  -0.34158
   7        3PX         0.00000   0.00000  -0.00491   0.00000   0.00000
   8        3PY         0.00000   0.00000   0.00000  -0.00491   0.00000
   9        3PZ         1.44209   0.04322   0.00000   0.00000  -0.00022
  10        4S         -0.00183  -0.01514   0.00000   0.00000   0.18556
  11        4PX         0.00000   0.00000   0.00446   0.00000   0.00000
  12        4PY         0.00000   0.00000   0.00000   0.00446   0.00000
  13        4PZ        -0.56755  -0.03966   0.00000   0.00000   0.00028
  14 2   O  1S          0.00171   0.00012   0.00000   0.00000  -0.00022
  15        2S          0.00331   0.00020   0.00000   0.00000  -0.00001
  16        2PX         0.00000   0.00000  -1.26635   0.00000   0.00000
  17        2PY         0.00000   0.00000   0.00000  -1.26635   0.00000
  18        2PZ         0.01884  -1.27419   0.00000   0.00000   0.00118
  19        3S         -0.02518  -0.00167   0.00000   0.00000   0.00131
  20        3PX         0.00000   0.00000   1.37925   0.00000   0.00000
  21        3PY         0.00000   0.00000   0.00000   1.37925   0.00000
  22        3PZ         0.00782   1.36300   0.00000   0.00000  -0.00294
  23        4S          0.02911   0.00195   0.00000   0.00000  -0.00168
  24        4PX         0.00000   0.00000  -0.52942   0.00000   0.00000
  25        4PY         0.00000   0.00000   0.00000  -0.52942   0.00000
  26        4PZ        -0.03731  -0.52582   0.00000   0.00000   0.00362
                          26
                           V
     Eigenvalues --    51.19420
   1 1   C  1S          0.00023
   2        2S         -0.00041
   3        2PX         0.00000
   4        2PY         0.00000
   5        2PZ        -0.00090
   6        3S          0.00093
   7        3PX         0.00000
   8        3PY         0.00000
   9        3PZ         0.00237
  10        4S         -0.00109
  11        4PX         0.00000
  12        4PY         0.00000
  13        4PZ        -0.00278
  14 2   O  1S         -2.24580
  15        2S          2.32249
  16        2PX         0.00000
  17        2PY         0.00000
  18        2PZ        -0.00006
  19        3S         -0.20125
  20        3PX         0.00000
  21        3PY         0.00000
  22        3PZ         0.00015
  23        4S          0.12125
  24        4PX         0.00000
  25        4PY         0.00000
  26        4PZ        -0.00020
     Density Matrix:
                           1         2         3         4         5
   1 1   C  1S          0.66614
   2        2S          0.57802   0.52322
   3        2PX        -0.00000  -0.00000   0.00000
   4        2PY        -0.00000  -0.00000   0.00000   0.00000
   5        2PZ         0.00023   0.00039  -0.00000  -0.00000   0.16122
   6        3S         -0.14604  -0.24869   0.00000   0.00000  -0.00181
   7        3PX        -0.00000  -0.00000  -0.00000  -0.00000  -0.00000
   8        3PY        -0.00000  -0.00000  -0.00000  -0.00000  -0.00000
   9        3PZ         0.00021   0.00045  -0.00000  -0.00000   0.24848
  10        4S         -0.12694  -0.21558  -0.00000  -0.00000   0.00102
  11        4PX        -0.00000  -0.00000   0.00000   0.00000  -0.00000
  12        4PY        -0.00000  -0.00000   0.00000   0.00000  -0.00000
  13        4PZ         0.00008   0.00021  -0.00000  -0.00000   0.27446
  14 2   O  1S         -0.00006  -0.00010  -0.00000  -0.00000   0.00045
  15        2S         -0.00010  -0.00018  -0.00000  -0.00000   0.00084
  16        2PX        -0.00000  -0.00000   0.00013   0.00000   0.00000
  17        2PY        -0.00000  -0.00000   0.00000   0.00013   0.00000
  18        2PZ         0.00012   0.00021   0.00000   0.00000  -0.00261
  19        3S          0.00043   0.00076   0.00000   0.00000  -0.00387
  20        3PX        -0.00000  -0.00000   0.00019   0.00000   0.00000
  21        3PY        -0.00000  -0.00000   0.00000   0.00019   0.00000
  22        3PZ         0.00003   0.00005   0.00000   0.00000  -0.00237
  23        4S         -0.00007  -0.00009  -0.00000  -0.00000   0.00125
  24        4PX        -0.00000  -0.00000   0.00018   0.00000   0.00000
  25        4PY        -0.00000  -0.00000   0.00000   0.00018   0.00000
  26        4PZ         0.00057   0.00097   0.00000   0.00000  -0.00905
                           6         7         8         9        10
   6        3S          0.71884
   7        3PX         0.00000   0.00000
   8        3PY         0.00000   0.00000   0.00000
   9        3PZ        -0.00260  -0.00000  -0.00000   0.38298
  10        4S          0.62151  -0.00000  -0.00000   0.00173   0.53741
  11        4PX         0.00000  -0.00000  -0.00000  -0.00000  -0.00000
  12        4PY         0.00000  -0.00000  -0.00000  -0.00000  -0.00000
  13        4PZ        -0.00197  -0.00000  -0.00000   0.42303   0.00269
  14 2   O  1S          0.00034  -0.00000  -0.00000   0.00075   0.00011
  15        2S          0.00062  -0.00000  -0.00000   0.00139   0.00021
  16        2PX         0.00000  -0.00035  -0.00000   0.00000   0.00000
  17        2PY         0.00000  -0.00000  -0.00035   0.00000   0.00000
  18        2PZ        -0.00059   0.00000   0.00000  -0.00403  -0.00055
  19        3S         -0.00247   0.00000   0.00000  -0.00626  -0.00119
  20        3PX         0.00000  -0.00052  -0.00000   0.00000   0.00000
  21        3PY         0.00000  -0.00000  -0.00052   0.00000   0.00000
  22        3PZ        -0.00013   0.00000   0.00000  -0.00366  -0.00015
  23        4S          0.00003  -0.00000  -0.00000   0.00170   0.00080
  24        4PX         0.00000  -0.00049  -0.00000   0.00000   0.00000
  25        4PY         0.00000  -0.00000  -0.00049   0.00000   0.00000
  26        4PZ        -0.00276   0.00000   0.00000  -0.01395  -0.00253
                          11        12        13        14        15
  11        4PX         0.00001
  12        4PY         0.00000   0.00001
  13        4PZ        -0.00000  -0.00000   0.46726
  14 2   O  1S         -0.00000  -0.00000   0.00066   0.64068
  15        2S         -0.00000  -0.00000   0.00125   0.57483   0.53677
  16        2PX         0.00102   0.00000   0.00000   0.00000   0.00000
  17        2PY         0.00000   0.00102   0.00000   0.00000   0.00000
  18        2PZ         0.00000   0.00000  -0.00445  -0.00013  -0.00021
  19        3S          0.00000   0.00000  -0.00607  -0.15798  -0.27034
  20        3PX         0.00153   0.00000   0.00000   0.00000   0.00000
  21        3PY         0.00000   0.00153   0.00000   0.00000   0.00000
  22        3PZ         0.00000   0.00000  -0.00404  -0.00016  -0.00028
  23        4S         -0.00000  -0.00000   0.00252  -0.12232  -0.20595
  24        4PX         0.00142   0.00000   0.00000   0.00000   0.00000
  25        4PY         0.00000   0.00142   0.00000   0.00000   0.00000
  26        4PZ         0.00000   0.00000  -0.01541  -0.00037  -0.00063
                          16        17        18        19        20
  16        2PX         0.19586
  17        2PY         0.00000   0.19586
  18        2PZ         0.00000  -0.00000   0.00004
  19        3S         -0.00000  -0.00000   0.00062   0.82575
  20        3PX         0.29450   0.00000   0.00000  -0.00000   0.44283
  21        3PY         0.00000   0.29450  -0.00000  -0.00000   0.00000
  22        3PZ         0.00000  -0.00000   0.00004   0.00089   0.00000
  23        4S         -0.00000  -0.00000   0.00039   0.61870  -0.00000
  24        4PX         0.27290   0.00000   0.00000  -0.00000   0.41034
  25        4PY         0.00000   0.27290  -0.00000  -0.00000   0.00000
  26        4PZ         0.00000  -0.00000   0.00015   0.00196   0.00000
                          21        22        23        24        25
  21        3PY         0.44283
  22        3PZ        -0.00000   0.00004
  23        4S         -0.00000   0.00061   0.46370
  24        4PX         0.00000   0.00000  -0.00000   0.38023
  25        4PY         0.41034  -0.00000  -0.00000   0.00000   0.38023
  26        4PZ        -0.00000   0.00014   0.00123   0.00000  -0.00000
                          26
  26        4PZ         0.00052
    Full Mulliken population analysis:
                           1         2         3         4         5
   1 1   C  1S          0.66614
   2        2S          0.50776   0.52322
   3        2PX         0.00000   0.00000   0.00000
   4        2PY         0.00000   0.00000   0.00000   0.00000
   5        2PZ         0.00000   0.00000  -0.00000   0.00000   0.16122
   6        3S         -0.04807  -0.10415   0.00000   0.00000   0.00000
   7        3PX         0.00000   0.00000  -0.00000  -0.00000  -0.00000
   8        3PY         0.00000   0.00000  -0.00000  -0.00000   0.00000
   9        3PZ         0.00000   0.00000  -0.00000   0.00000   0.15632
  10        4S         -0.01952  -0.04034   0.00000   0.00000   0.00000
  11        4PX         0.00000   0.00000   0.00000   0.00000  -0.00000
  12        4PY         0.00000   0.00000   0.00000   0.00000   0.00000
  13        4PZ         0.00000   0.00000  -0.00000   0.00000   0.06044
  14 2   O  1S          0.00000   0.00000   0.00000   0.00000   0.00000
  15        2S          0.00000   0.00000   0.00000   0.00000   0.00000
  16        2PX         0.00000   0.00000   0.00000   0.00000   0.00000
  17        2PY         0.00000   0.00000   0.00000   0.00000   0.00000
  18        2PZ         0.00000   0.00000   0.00000   0.00000   0.00000
  19        3S          0.00000  -0.00000  -0.00000  -0.00000  -0.00000
  20        3PX        -0.00000   0.00000   0.00000   0.00000   0.00000
  21        3PY        -0.00000   0.00000   0.00000   0.00000   0.00000
  22        3PZ        -0.00000   0.00000   0.00000   0.00000   0.00000
  23        4S         -0.00000  -0.00000   0.00000   0.00000   0.00000
  24        4PX        -0.00000  -0.00000   0.00000   0.00000   0.00000
  25        4PY        -0.00000  -0.00000   0.00000   0.00000   0.00000
  26        4PZ        -0.00000  -0.00000   0.00000   0.00000   0.00000
                           6         7         8         9        10
   6        3S          0.71884
   7        3PX         0.00000   0.00000
   8        3PY         0.00000   0.00000   0.00000
   9        3PZ         0.00000  -0.00000   0.00000   0.38298
  10        4S          0.48149   0.00000   0.00000   0.00000   0.53741
  11        4PX         0.00000  -0.00000  -0.00000  -0.00000   0.00000
  12        4PY         0.00000  -0.00000  -0.00000   0.00000   0.00000
  13        4PZ         0.00000  -0.00000   0.00000   0.27643   0.00000
  14 2   O  1S          0.00000   0.00000   0.00000   0.00000   0.00000
  15        2S          0.00000   0.00000   0.00000   0.00000   0.00000
  16        2PX         0.00000  -0.00000  -0.00000   0.00000   0.00000
  17        2PY         0.00000  -0.00000  -0.00000   0.00000   0.00000
  18        2PZ         0.00000   0.00000   0.00000   0.00000   0.00000
  19        3S         -0.00000  -0.00000  -0.00000  -0.00000  -0.00000
  20        3PX         0.00000  -0.00000  -0.00000   0.00000   0.00000
  21        3PY         0.00000  -0.00000  -0.00000   0.00000   0.00000
  22        3PZ         0.00000   0.00000   0.00000   0.00000   0.00000
  23        4S          0.00000   0.00000   0.00000   0.00000   0.00000
  24        4PX         0.00000  -0.00000  -0.00000   0.00000   0.00000
  25        4PY         0.00000  -0.00000  -0.00000   0.00000   0.00000
  26        4PZ         0.00000   0.00000   0.00000   0.00001   0.00003
                          11        12        13        14        15
  11        4PX         0.00001
  12        4PY         0.00000   0.00001
  13        4PZ        -0.00000   0.00000   0.46726
  14 2   O  1S          0.00000   0.00000   0.00000   0.64068
  15        2S          0.00000   0.00000   0.00000   0.51848   0.53677
  16        2PX         0.00000   0.00000   0.00000   0.00000   0.00000
  17        2PY         0.00000   0.00000   0.00000   0.00000   0.00000
  18        2PZ         0.00000   0.00000   0.00000   0.00000   0.00000
  19        3S         -0.00000  -0.00000  -0.00001  -0.05568  -0.10854
  20        3PX         0.00000   0.00000   0.00000   0.00000   0.00000
  21        3PY         0.00000   0.00000   0.00000   0.00000   0.00000
  22        3PZ         0.00000   0.00000   0.00001   0.00000   0.00000
  23        4S          0.00000   0.00000   0.00004  -0.01932  -0.03507
  24        4PX         0.00001   0.00000   0.00000   0.00000   0.00000
  25        4PY         0.00000   0.00001   0.00000   0.00000   0.00000
  26        4PZ         0.00000   0.00000   0.00057   0.00000   0.00000
                          16        17        18        19        20
  16        2PX         0.19586
  17        2PY         0.00000   0.19586
  18        2PZ         0.00000   0.00000   0.00004
  19        3S          0.00000   0.00000   0.00000   0.82575
  20        3PX         0.18023   0.00000   0.00000   0.00000   0.44283
  21        3PY         0.00000   0.18023   0.00000   0.00000   0.00000
  22        3PZ         0.00000   0.00000   0.00002   0.00000   0.00000
  23        4S          0.00000   0.00000   0.00000   0.46670   0.00000
  24        4PX         0.05381   0.00000   0.00000   0.00000   0.25649
  25        4PY         0.00000   0.05381   0.00000   0.00000   0.00000
  26        4PZ         0.00000   0.00000   0.00003   0.00000   0.00000
                          21        22        23        24        25
  21        3PY         0.44283
  22        3PZ         0.00000   0.00004
  23        4S          0.00000   0.00000   0.46370
  24        4PX         0.00000   0.00000   0.00000   0.38023
  25        4PY         0.25649   0.00000   0.00000   0.00000   0.38023
  26        4PZ         0.00000   0.00008   0.00000   0.00000   0.00000
                          26
  26        4PZ         0.00052
     Gross orbital populations:
                           1
   1 1   C  1S          1.10631
   2        2S          0.88649
   3        2PX         0.00000
   4        2PY         0.00000
   5        2PZ         0.37798
   6        3S          1.04810
   7        3PX        -0.00000
   8        3PY        -0.00000
   9        3PZ         0.81575
  10        4S          0.95906
  11        4PX         0.00001
  12        4PY         0.00001
  13        4PZ         0.80475
  14 2   O  1S          1.08416
  15        2S          0.91164
  16        2PX         0.42991
  17        2PY         0.42991
  18        2PZ         0.00010
  19        3S          1.12821
  20        3PX         0.87955
  21        3PY         0.87955
  22        3PZ         0.00016
  23        4S          0.87605
  24        4PX         0.69053
  25        4PY         0.69053
  26        4PZ         0.00125
          Condensed to atoms (all electrons):
               1          2
     1  C    5.997794   0.000666
     2  O    0.000666   8.000874
 Mulliken charges:
               1
     1  C    0.001540
     2  O   -0.001540
 Sum of Mulliken charges =  -0.00000
 Mulliken charges with hydrogens summed into heavy atoms:
               1
     1  C    0.001540
     2  O   -0.001540
 Electronic spatial extent (au):  <R**2>=            228.6487
 Charge=             -0.0000 electrons
 Dipole moment (field-independent basis, Debye):
    X=              0.0000    Y=              0.0000    Z=             -0.0570  Tot=              0.0570
 Quadrupole moment (field-independent basis, Debye-Ang):
   XX=            -10.6570   YY=            -10.6570   ZZ=            -12.7286
   XY=             -0.0000   XZ=              0.0000   YZ=              0.0000
 Traceless Quadrupole moment (field-independent basis, Debye-Ang):
   XX=              0.6905   YY=              0.6905   ZZ=             -1.3811
   XY=             -0.0000   XZ=              0.0000   YZ=              0.0000
 Octapole moment (field-independent basis, Debye-Ang**2):
  XXX=              0.0000  YYY=              0.0000  ZZZ=             44.5995  XYY=              0.0000
  XXY=              0.0000  XXZ=              1.4479  XZZ=             -0.0000  YZZ=             -0.0000
  YYZ=              1.4479  XYZ=             -0.0000
 Hexadecapole moment (field-independent basis, Debye-Ang**3):
 XXXX=             -8.9718 YYYY=             -8.9718 ZZZZ=           -378.4641 XXXY=             -0.0000
 XXXZ=              0.0000 YYYX=             -0.0000 YYYZ=             -0.0000 ZZZX=              0.0000
 ZZZY=             -0.0000 XXYY=             -2.9906 XXZZ=            -48.1729 YYZZ=            -48.1729
 XXYZ=             -0.0000 YYXZ=              0.0000 ZZXY=             -0.0000
 N-N= 6.232863053204D+00 E-N=-2.783154733242D+02  KE= 1.123311321677D+02
 Symmetry A1   KE= 1.022973447420D+02
 Symmetry A2   KE= 0.000000000000D+00
 Symmetry B1   KE= 5.016893712821D+00
 Symmetry B2   KE= 5.016893712821D+00
 Orbital energies and kinetic energies (alpha):
                                 1                 2
   1         O               -20.686971         29.214431
   2         O               -11.359446         16.052703
   3         O                -1.247100          3.123902
   4         O                -0.723681          1.561468
   5         O                -0.571992          2.508447
   6         O                -0.571992          2.508447
   7         O                -0.357427          1.196169
   8         V                 0.008440          1.906225
   9         V                 0.043938          0.850714
  10         V                 0.043938          0.850714
  11         V                 0.583542          1.364209
  12         V                 0.615890          1.591606
  13         V                 0.615890          1.591606
  14         V                 0.617279          2.109078
  15         V                 0.959163          2.379964
  16         V                 0.959163          2.379964
  17         V                 1.008232          2.849991
  18         V                 1.058243          3.806744
  19         V                 2.930548          6.344684
  20         V                 2.930548          6.344684
  21         V                 2.959417          6.262014
  22         V                 5.190526         11.857666
  23         V                 5.217866         11.709366
  24         V                 5.217866         11.709366
  25         V                24.202360         60.132122
  26         V                51.194200        123.910604
 Total kinetic energy from orbitals= 1.123311321677D+02
 No NMR shielding tensors so no spin-rotation constants.
 Leave Link  601 at Mon Jun 12 20:20:34 2023, MaxMem=   104857600 cpu:               0.1 elap:               0.1
 (Enter /home/linux-pohl-v2/Escritorio/Gaussian/g16/l701.exe)
 ... and contract with generalized density number  0.
 Compute integral first derivatives.
 Leave Link  701 at Mon Jun 12 20:20:34 2023, MaxMem=   104857600 cpu:               0.1 elap:               0.1
 (Enter /home/linux-pohl-v2/Escritorio/Gaussian/g16/l702.exe)
 L702 exits ... SP integral derivatives will be done elsewhere.
 Leave Link  702 at Mon Jun 12 20:20:34 2023, MaxMem=   104857600 cpu:               0.0 elap:               0.0
 (Enter /home/linux-pohl-v2/Escritorio/Gaussian/g16/l703.exe)
 Integral derivatives from FoFJK, PRISM(SPDF).
 Compute integral first derivatives, UseDBF=F ICtDFT=           0.
 Calling FoFJK, ICntrl=      2127 FMM=F ISym2X=1 I1Cent= 0 IOpClX= 0 NMat=1 NMatS=1 NMatT=0.
 FoFJK:  IHMeth= 1 ICntrl=    2127 DoSepK=F KAlg= 0 I1Cent=           0 FoldK=F
 IRaf=         0 NMat=       1 IRICut=       1 DoRegI=T DoRafI=F ISym2E= 1 IDoP0=0 IntGTp=1.
 FoFCou: FMM=F IPFlag=           0 FMFlag=      100000 FMFlg1=         800
         NFxFlg=           0 DoJE=F BraDBF=F KetDBF=F FulRan=T
         wScrn=  0.000000 ICntrl=      2127 IOpCl=  0 I1Cent=           0 NGrid=           0
         NMat0=    1 NMatS0=      1 NMatT0=    0 NMatD0=    1 NMtDS0=    0 NMtDT0=    0
 Petite list used in FoFCou.
 Leave Link  703 at Mon Jun 12 20:20:34 2023, MaxMem=   104857600 cpu:               0.1 elap:               0.1
 (Enter /home/linux-pohl-v2/Escritorio/Gaussian/g16/l716.exe)
 Dipole        = 6.35117538D-20 4.00410923D-21-2.24187230D-02
 ***** Axes restored to original set *****
 -------------------------------------------------------------------
 Center     Atomic                   Forces (Hartrees/Bohr)
 Number     Number              X              Y              Z
 -------------------------------------------------------------------
      1        6           0.001053474   -0.000010641    0.000043051
      2        8          -0.001053474    0.000010641   -0.000043051
 -------------------------------------------------------------------
 Cartesian Forces:  Max     0.001053474 RMS     0.000608762
 Leave Link  716 at Mon Jun 12 20:20:34 2023, MaxMem=   104857600 cpu:               0.0 elap:               0.0
 (Enter /home/linux-pohl-v2/Escritorio/Gaussian/g16/l103.exe)

 GradGradGradGradGradGradGradGradGradGradGradGradGradGradGradGradGradGrad
 Berny optimization.
 FormGI is forming the generalized inverse of G from B-inverse, IUseBI=4.
 Internal  Forces:  Max     0.001054407 RMS     0.001054407
 Search for a local minimum.
 Step number   1 out of a maximum of   10
 All quantities printed in internal units (Hartrees-Bohrs-Radians)
 RMS Force = .10544D-02 SwitMx=.10000D-02 MixMth= 1
 Mixed Optimization -- RFO/linear search
 Second derivative matrix not updated -- first step.
 The second derivative matrix:
                          R1
           R1           0.00599
 ITU=  0
     Eigenvalues ---    0.00599
 RFO step:  Lambda=-1.80257965D-04 EMin= 5.98742110D-03
 Linear search not attempted -- first point.
 Iteration  1 RMS(Cart)=  0.12088470 RMS(Int)=  0.00000000
 Iteration  2 RMS(Cart)=  0.00000000 RMS(Int)=  0.00000000
 ITry= 1 IFail=0 DXMaxC= 8.54D-02 DCOld= 1.00D+10 DXMaxT= 3.00D-01 DXLimC= 3.00D+00 Rises=F
 ClnCor:  largest displacement from symmetrization is 3.66D-15 for atom     1.
 Variable       Old X    -DE/DX   Delta X   Delta X   Delta X     New X
                                 (Linear)    (Quad)   (Total)
    R1        7.70112  -0.00105   0.00000  -0.17096  -0.17096   7.53016
         Item               Value     Threshold  Converged?
 Maximum Force            0.001054     0.000450     NO 
 RMS     Force            0.001054     0.000300     NO 
 Maximum Displacement     0.085403     0.001800     NO 
 RMS     Displacement     0.120885     0.001200     NO 
 Predicted change in Energy=-9.276311D-05
 Lowest energy point so far.  Saving SCF results.
 GradGradGradGradGradGradGradGradGradGradGradGradGradGradGradGradGradGrad

 Leave Link  103 at Mon Jun 12 20:20:34 2023, MaxMem=   104857600 cpu:               0.0 elap:               0.0
 (Enter /home/linux-pohl-v2/Escritorio/Gaussian/g16/l202.exe)
                          Input orientation:                          
 ---------------------------------------------------------------------
 Center     Atomic      Atomic             Coordinates (Angstroms)
 Number     Number       Type             X           Y           Z
 ---------------------------------------------------------------------
      1          6           0       -3.656306    0.513641  -11.904641
      2          8           0        0.324957    0.473425  -11.741944
 ---------------------------------------------------------------------
 Stoichiometry    CO
 Framework group  C*V[C*(CO)]
 Deg. of freedom     1
 Full point group                 C*V     NOp   4
 RotChk:  IX=0 Diff= 7.18D-16
 Largest Abelian subgroup         C2V     NOp   4
 Largest concise Abelian subgroup C1      NOp   1
                         Standard orientation:                         
 ---------------------------------------------------------------------
 Center     Atomic      Atomic             Coordinates (Angstroms)
 Number     Number       Type             X           Y           Z
 ---------------------------------------------------------------------
      1          6           0        0.000000   -0.000000   -2.277022
      2          8           0        0.000000    0.000000    1.707767
 ---------------------------------------------------------------------
 Rotational constants (GHZ):           0.0000000           4.6421868           4.6421868
 Leave Link  202 at Mon Jun 12 20:20:34 2023, MaxMem=   104857600 cpu:               0.0 elap:               0.0
 (Enter /home/linux-pohl-v2/Escritorio/Gaussian/g16/l301.exe)
 Standard basis: 6-311G (5D, 7F)
 Ernie: Thresh=  0.10000D-02 Tol=  0.10000D-05 Strict=F.
 There are    14 symmetry adapted cartesian basis functions of A1  symmetry.
 There are     0 symmetry adapted cartesian basis functions of A2  symmetry.
 There are     6 symmetry adapted cartesian basis functions of B1  symmetry.
 There are     6 symmetry adapted cartesian basis functions of B2  symmetry.
 There are    14 symmetry adapted basis functions of A1  symmetry.
 There are     0 symmetry adapted basis functions of A2  symmetry.
 There are     6 symmetry adapted basis functions of B1  symmetry.
 There are     6 symmetry adapted basis functions of B2  symmetry.
    26 basis functions,    52 primitive gaussians,    26 cartesian basis functions
     7 alpha electrons        7 beta electrons
       nuclear repulsion energy         6.3743674021 Hartrees.
 IExCor=    0 DFT=F Ex=HF Corr=None ExCW=0 ScaHFX=  1.000000
 ScaDFX=  1.000000  1.000000  1.000000  1.000000 ScalE2=  1.000000  1.000000
 IRadAn=      5 IRanWt=     -1 IRanGd=            0 ICorTp=0 IEmpDi=  4
 NAtoms=    2 NActive=    2 NUniq=    2 SFac= 1.00D+00 NAtFMM=   60 NAOKFM=F Big=F
 Integral buffers will be    131072 words long.
 Raffenetti 1 integral format.
 Two-electron integral symmetry is turned on.
 Leave Link  301 at Mon Jun 12 20:20:34 2023, MaxMem=   104857600 cpu:               0.0 elap:               0.0
 (Enter /home/linux-pohl-v2/Escritorio/Gaussian/g16/l302.exe)
 NPDir=0 NMtPBC=     1 NCelOv=     1 NCel=       1 NClECP=     1 NCelD=      1
         NCelK=      1 NCelE2=     1 NClLst=     1 CellRange=     0.0.
 One-electron integrals computed using PRISM.
 One-electron integral symmetry used in STVInt
 NBasis=    26 RedAO= T EigKep=  9.43D-02  NBF=    14     0     6     6
 NBsUse=    26 1.00D-06 EigRej= -1.00D+00 NBFU=    14     0     6     6
 Leave Link  302 at Mon Jun 12 20:20:34 2023, MaxMem=   104857600 cpu:               0.1 elap:               0.1
 (Enter /home/linux-pohl-v2/Escritorio/Gaussian/g16/l303.exe)
 DipDrv:  MaxL=1.
 Leave Link  303 at Mon Jun 12 20:20:34 2023, MaxMem=   104857600 cpu:               0.0 elap:               0.0
 (Enter /home/linux-pohl-v2/Escritorio/Gaussian/g16/l401.exe)
 Initial guess from the checkpoint file:  "/tmp/Gau-34616.chk"
 B after Tr=     0.000000   -0.000000   -0.000000
         Rot=    1.000000   -0.000000   -0.000000    0.000000 Ang=   0.00 deg.
 Guess basis will be translated and rotated to current coordinates.
 JPrj=2 DoOrth=T DoCkMO=T.
 Initial guess orbital symmetries:
       Occupied  (SG) (SG) (SG) (SG) (PI) (PI) (SG)
       Virtual   (SG) (PI) (PI) (SG) (PI) (PI) (SG) (PI) (PI) (SG)
                 (SG) (PI) (PI) (SG) (SG) (PI) (PI) (SG) (SG)
 The electronic state of the initial guess is 1-SG.
 Generating alternative initial guess.
 ExpMin= 1.46D-01 ExpMax= 8.59D+03 ExpMxC= 1.30D+03 IAcc=3 IRadAn=         5 AccDes= 0.00D+00
 Harris functional with IExCor=  205 and IRadAn=       5 diagonalized for initial guess.
 HarFok:  IExCor=  205 AccDes= 0.00D+00 IRadAn=         5 IDoV= 1 UseB2=F ITyADJ=14
 ICtDFT=  3500011 ScaDFX=  1.000000  1.000000  1.000000  1.000000
 FoFCou: FMM=F IPFlag=           0 FMFlag=      100000 FMFlg1=           0
         NFxFlg=           0 DoJE=T BraDBF=F KetDBF=T FulRan=T
         wScrn=  0.000000 ICntrl=       500 IOpCl=  0 I1Cent=   200000004 NGrid=           0
         NMat0=    1 NMatS0=      1 NMatT0=    0 NMatD0=    1 NMtDS0=    0 NMtDT0=    0
 Petite list used in FoFCou.
 Harris En= -112.414591813195    
 Leave Link  401 at Mon Jun 12 20:20:34 2023, MaxMem=   104857600 cpu:               0.1 elap:               0.1
 (Enter /home/linux-pohl-v2/Escritorio/Gaussian/g16/l502.exe)
 Keep R1 ints in memory in symmetry-blocked form, NReq=868972.
 FoFCou: FMM=F IPFlag=           0 FMFlag=           0 FMFlg1=           0
         NFxFlg=           0 DoJE=F BraDBF=F KetDBF=F FulRan=T
         wScrn=  0.000000 ICntrl=       600 IOpCl=  0 I1Cent=           0 NGrid=           0
         NMat0=    1 NMatS0=    351 NMatT0=    0 NMatD0=    1 NMtDS0=    0 NMtDT0=    0
 Petite list used in FoFCou.
 Closed shell SCF:
 Using DIIS extrapolation, IDIIS=  1040.
 NGot=   104857600 LenX=   104835198 LenY=   104834081
 Requested convergence on RMS density matrix=1.00D-08 within 128 cycles.
 Requested convergence on MAX density matrix=1.00D-06.
 Requested convergence on             energy=1.00D-06.
 No special actions if energy rises.

 Cycle   1  Pass 1  IDiag  1:
 E= -112.278104314484    
 DIIS: error= 3.41D-04 at cycle   1 NSaved=   1.
 NSaved= 1 IEnMin= 1 EnMin= -112.278104314484     IErMin= 1 ErrMin= 3.41D-04
 ErrMax= 3.41D-04  0.00D+00 EMaxC= 1.00D-01 BMatC= 8.24D-07 BMatP= 8.24D-07
 IDIUse=3 WtCom= 9.97D-01 WtEn= 3.41D-03
 Coeff-Com:  0.100D+01
 Coeff-En:   0.100D+01
 Coeff:      0.100D+01
 Gap=     0.367 Goal=   None    Shift=    0.000
 RMSDP=6.38D-05 MaxDP=5.80D-04              OVMax= 1.97D-03

 Cycle   2  Pass 1  IDiag  1:
 E= -112.278108884552     Delta-E=       -0.000004570068 Rises=F Damp=F
 DIIS: error= 1.33D-04 at cycle   2 NSaved=   2.
 NSaved= 2 IEnMin= 2 EnMin= -112.278108884552     IErMin= 2 ErrMin= 1.33D-04
 ErrMax= 1.33D-04  0.00D+00 EMaxC= 1.00D-01 BMatC= 9.71D-08 BMatP= 8.24D-07
 IDIUse=3 WtCom= 9.99D-01 WtEn= 1.33D-03
 Coeff-Com: -0.410D+00 0.141D+01
 Coeff-En:   0.000D+00 0.100D+01
 Coeff:     -0.409D+00 0.141D+01
 Gap=     0.367 Goal=   None    Shift=    0.000
 RMSDP=3.27D-05 MaxDP=3.13D-04 DE=-4.57D-06 OVMax= 1.07D-03

 Cycle   3  Pass 1  IDiag  1:
 E= -112.278109613472     Delta-E=       -0.000000728919 Rises=F Damp=F
 DIIS: error= 1.82D-05 at cycle   3 NSaved=   3.
 NSaved= 3 IEnMin= 3 EnMin= -112.278109613472     IErMin= 3 ErrMin= 1.82D-05
 ErrMax= 1.82D-05  0.00D+00 EMaxC= 1.00D-01 BMatC= 1.80D-09 BMatP= 9.71D-08
 IDIUse=1 WtCom= 1.00D+00 WtEn= 0.00D+00
 Coeff-Com:  0.422D-01-0.256D+00 0.121D+01
 Coeff:      0.422D-01-0.256D+00 0.121D+01
 Gap=     0.367 Goal=   None    Shift=    0.000
 RMSDP=4.86D-06 MaxDP=4.52D-05 DE=-7.29D-07 OVMax= 1.59D-04

 Cycle   4  Pass 1  IDiag  1:
 E= -112.278109626820     Delta-E=       -0.000000013349 Rises=F Damp=F
 DIIS: error= 8.65D-07 at cycle   4 NSaved=   4.
 NSaved= 4 IEnMin= 4 EnMin= -112.278109626820     IErMin= 4 ErrMin= 8.65D-07
 ErrMax= 8.65D-07  0.00D+00 EMaxC= 1.00D-01 BMatC= 1.73D-11 BMatP= 1.80D-09
 IDIUse=1 WtCom= 1.00D+00 WtEn= 0.00D+00
 Coeff-Com: -0.305D-02 0.228D-01-0.166D+00 0.115D+01
 Coeff:     -0.305D-02 0.228D-01-0.166D+00 0.115D+01
 Gap=     0.367 Goal=   None    Shift=    0.000
 RMSDP=3.55D-07 MaxDP=4.02D-06 DE=-1.33D-08 OVMax= 7.91D-06

 Cycle   5  Pass 1  IDiag  1:
 E= -112.278109626876     Delta-E=       -0.000000000056 Rises=F Damp=F
 DIIS: error= 1.70D-07 at cycle   5 NSaved=   5.
 NSaved= 5 IEnMin= 5 EnMin= -112.278109626876     IErMin= 5 ErrMin= 1.70D-07
 ErrMax= 1.70D-07  0.00D+00 EMaxC= 1.00D-01 BMatC= 5.28D-13 BMatP= 1.73D-11
 IDIUse=1 WtCom= 1.00D+00 WtEn= 0.00D+00
 Coeff-Com: -0.742D-03 0.339D-02-0.398D-02-0.180D+00 0.118D+01
 Coeff:     -0.742D-03 0.339D-02-0.398D-02-0.180D+00 0.118D+01
 Gap=     0.367 Goal=   None    Shift=    0.000
 RMSDP=5.69D-08 MaxDP=7.61D-07 DE=-5.58D-11 OVMax= 5.82D-07

 Cycle   6  Pass 1  IDiag  1:
 E= -112.278109626877     Delta-E=       -0.000000000001 Rises=F Damp=F
 DIIS: error= 2.47D-08 at cycle   6 NSaved=   6.
 NSaved= 6 IEnMin= 6 EnMin= -112.278109626877     IErMin= 6 ErrMin= 2.47D-08
 ErrMax= 2.47D-08  0.00D+00 EMaxC= 1.00D-01 BMatC= 1.23D-14 BMatP= 5.28D-13
 IDIUse=1 WtCom= 1.00D+00 WtEn= 0.00D+00
 Coeff-Com:  0.224D-03-0.117D-02 0.421D-02 0.155D-01-0.265D+00 0.125D+01
 Coeff:      0.224D-03-0.117D-02 0.421D-02 0.155D-01-0.265D+00 0.125D+01
 Gap=     0.367 Goal=   None    Shift=    0.000
 RMSDP=1.05D-08 MaxDP=1.38D-07 DE=-1.05D-12 OVMax= 1.46D-07

 Cycle   7  Pass 1  IDiag  1:
 E= -112.278109626877     Delta-E=       -0.000000000000 Rises=F Damp=F
 DIIS: error= 2.13D-09 at cycle   7 NSaved=   7.
 NSaved= 7 IEnMin= 7 EnMin= -112.278109626877     IErMin= 7 ErrMin= 2.13D-09
 ErrMax= 2.13D-09  0.00D+00 EMaxC= 1.00D-01 BMatC= 1.71D-16 BMatP= 1.23D-14
 IDIUse=1 WtCom= 1.00D+00 WtEn= 0.00D+00
 Coeff-Com:  0.599D-05-0.807D-05-0.183D-03 0.208D-02 0.115D-02-0.105D+00
 Coeff-Com:  0.110D+01
 Coeff:      0.599D-05-0.807D-05-0.183D-03 0.208D-02 0.115D-02-0.105D+00
 Coeff:      0.110D+01
 Gap=     0.367 Goal=   None    Shift=    0.000
 RMSDP=8.50D-10 MaxDP=8.15D-09 DE=-1.14D-13 OVMax= 1.22D-08

 SCF Done:  E(RHF) =  -112.278109627     A.U. after    7 cycles
            NFock=  7  Conv=0.85D-09     -V/T= 1.9995
 KE= 1.123301063492D+02 PE=-2.785995511353D+02 EE= 4.761696775713D+01
 Leave Link  502 at Mon Jun 12 20:20:34 2023, MaxMem=   104857600 cpu:               0.1 elap:               0.1
 (Enter /home/linux-pohl-v2/Escritorio/Gaussian/g16/l701.exe)
 ... and contract with generalized density number  0.
 Compute integral first derivatives.
 Leave Link  701 at Mon Jun 12 20:20:34 2023, MaxMem=   104857600 cpu:               0.0 elap:               0.1
 (Enter /home/linux-pohl-v2/Escritorio/Gaussian/g16/l702.exe)
 L702 exits ... SP integral derivatives will be done elsewhere.
 Leave Link  702 at Mon Jun 12 20:20:34 2023, MaxMem=   104857600 cpu:               0.0 elap:               0.0
 (Enter /home/linux-pohl-v2/Escritorio/Gaussian/g16/l703.exe)
 Integral derivatives from FoFJK, PRISM(SPDF).
 Compute integral first derivatives, UseDBF=F ICtDFT=           0.
 Calling FoFJK, ICntrl=      2127 FMM=F ISym2X=1 I1Cent= 0 IOpClX= 0 NMat=1 NMatS=1 NMatT=0.
 FoFJK:  IHMeth= 1 ICntrl=    2127 DoSepK=F KAlg= 0 I1Cent=           0 FoldK=F
 IRaf=         0 NMat=       1 IRICut=       1 DoRegI=T DoRafI=F ISym2E= 1 IDoP0=0 IntGTp=1.
 FoFCou: FMM=F IPFlag=           0 FMFlag=      100000 FMFlg1=         800
         NFxFlg=           0 DoJE=F BraDBF=F KetDBF=F FulRan=T
         wScrn=  0.000000 ICntrl=      2127 IOpCl=  0 I1Cent=           0 NGrid=           0
         NMat0=    1 NMatS0=      1 NMatT0=    0 NMatD0=    1 NMtDS0=    0 NMtDT0=    0
 Petite list used in FoFCou.
 Leave Link  703 at Mon Jun 12 20:20:34 2023, MaxMem=   104857600 cpu:               0.1 elap:               0.1
 (Enter /home/linux-pohl-v2/Escritorio/Gaussian/g16/l716.exe)
 Dipole        =-3.43395482D-19 4.00974285D-21-2.73510476D-02
 ***** Axes restored to original set *****
 -------------------------------------------------------------------
 Center     Atomic                   Forces (Hartrees/Bohr)
 Number     Number              X              Y              Z
 -------------------------------------------------------------------
      1        6           0.001225215   -0.000012376    0.000050069
      2        8          -0.001225215    0.000012376   -0.000050069
 -------------------------------------------------------------------
 Cartesian Forces:  Max     0.001225215 RMS     0.000708005
 Leave Link  716 at Mon Jun 12 20:20:34 2023, MaxMem=   104857600 cpu:               0.0 elap:               0.0
 (Enter /home/linux-pohl-v2/Escritorio/Gaussian/g16/l103.exe)

 GradGradGradGradGradGradGradGradGradGradGradGradGradGradGradGradGradGrad
 Berny optimization.
 Using GEDIIS/GDIIS optimizer.
 Red2BG is reusing G-inverse.
 Internal  Forces:  Max     0.001226301 RMS     0.001226301
 Search for a local minimum.
 Step number   2 out of a maximum of   10
 All quantities printed in internal units (Hartrees-Bohrs-Radians)
 RMS Force = .12263D-02 SwitMx=.10000D-02 MixMth= 1
 Mixed Optimization -- RFO/linear search
 Update second derivatives using D2CorX and points    1    2
 DE= -1.95D-04 DEPred=-9.28D-05 R= 2.10D+00
 TightC=F SS=  1.41D+00  RLast= 1.71D-01 DXNew= 5.0454D-01 5.1287D-01
 Trust test= 2.10D+00 RLast= 1.71D-01 DXMaxT set to 5.05D-01
 The second derivative matrix:
                          R1
           R1          -0.00101
 ITU=  1  0
 Use linear search instead of GDIIS.
     Eigenvalues ---   -0.00101
 Eigenvalue     1 is  -1.01D-03 should be greater than     0.000000 Eigenvector:
                          R1
   1                    1.00000
 RFO step:  Lambda=-1.82809443D-03 EMin=-1.00548205D-03
 Skip linear search -- no minimum in search direction.
 Maximum step size (   0.505) exceeded in Quadratic search.
    -- Step size scaled by   0.505
 Iteration  1 RMS(Cart)=  0.14142136 RMS(Int)=  0.30453785
 Iteration  2 RMS(Cart)=  0.14142136 RMS(Int)=  0.10453785
 Iteration  3 RMS(Cart)=  0.07391942 RMS(Int)=  0.00000000
 Iteration  4 RMS(Cart)=  0.00000000 RMS(Int)=  0.00000000
 ITry= 1 IFail=0 DXMaxC= 2.52D-01 DCOld= 1.00D+10 DXMaxT= 5.05D-01 DXLimC= 3.00D+00 Rises=F
 ClnCor:  largest displacement from symmetrization is 3.63D-15 for atom     2.
 Variable       Old X    -DE/DX   Delta X   Delta X   Delta X     New X
                                 (Linear)    (Quad)   (Total)
    R1        7.53016  -0.00123   0.00000  -0.50454  -0.50454   7.02562
         Item               Value     Threshold  Converged?
 Maximum Force            0.001226     0.000450     NO 
 RMS     Force            0.001226     0.000300     NO 
 Maximum Displacement     0.252046     0.001800     NO 
 RMS     Displacement     0.356762     0.001200     NO 
 Predicted change in Energy=-7.466920D-04
 Lowest energy point so far.  Saving SCF results.
 GradGradGradGradGradGradGradGradGradGradGradGradGradGradGradGradGradGrad

 Leave Link  103 at Mon Jun 12 20:20:34 2023, MaxMem=   104857600 cpu:               0.0 elap:               0.0
 (Enter /home/linux-pohl-v2/Escritorio/Gaussian/g16/l202.exe)
                          Input orientation:                          
 ---------------------------------------------------------------------
 Center     Atomic      Atomic             Coordinates (Angstroms)
 Number     Number       Type             X           Y           Z
 ---------------------------------------------------------------------
      1          6           0       -3.522929    0.512293  -11.899191
      2          8           0        0.191580    0.474773  -11.747394
 ---------------------------------------------------------------------
 Stoichiometry    CO
[...]
   2        2S         -0.05306   0.00000   0.00000  -0.04085   2.16903
   3        2PX         0.00000   0.00000   0.04894   0.00000   0.00000
   4        2PY         0.00000   0.04894   0.00000   0.00000   0.00000
   5        2PZ        -1.33108   0.00000   0.00000   0.26235   0.02765
   6        3S          0.42850   0.00000   0.00000   0.15290  -0.43552
   7        3PX         0.00000   0.00000  -0.13824   0.00000   0.00000
   8        3PY         0.00000  -0.13824   0.00000   0.00000   0.00000
   9        3PZ         1.92350   0.00000   0.00000   0.04375  -0.13618
  10        4S          0.32388   0.00000   0.00000  -0.29043   0.10409
  11        4PX         0.00000   0.00000   0.23178   0.00000   0.00000
  12        4PY         0.00000   0.23178   0.00000   0.00000   0.00000
  13        4PZ        -0.50053   0.00000   0.00000  -0.08564  -0.00058
  14 2   O  1S          0.00552   0.00000   0.00000   0.00795  -0.01085
  15        2S          0.02363   0.00000   0.00000   0.01692   0.00109
  16        2PX         0.00000   0.00000  -1.27692   0.00000   0.00000
  17        2PY         0.00000  -1.27692   0.00000   0.00000   0.00000
  18        2PZ        -0.15056   0.00000   0.00000  -1.28391   0.01594
  19        3S         -0.26717   0.00000   0.00000  -0.12394   0.02519
  20        3PX         0.00000   0.00000   1.42564   0.00000   0.00000
  21        3PY         0.00000   1.42564   0.00000   0.00000   0.00000
  22        3PZ         0.36581   0.00000   0.00000   1.50183  -0.08478
  23        4S         -0.48166   0.00000   0.00000   0.21493   0.12623
  24        4PX         0.00000   0.00000  -0.65517   0.00000   0.00000
  25        4PY         0.00000  -0.65517   0.00000   0.00000   0.00000
  26        4PZ         0.45215   0.00000   0.00000  -0.61431  -0.10487
                          26
                           V
     Eigenvalues --    51.38911
   1 1   C  1S          0.01285
   2        2S         -0.02013
   3        2PX         0.00000
   4        2PY         0.00000
   5        2PZ        -0.00172
   6        3S         -0.00871
   7        3PX         0.00000
   8        3PY         0.00000
   9        3PZ         0.01178
  10        4S         -0.18229
  11        4PX         0.00000
  12        4PY         0.00000
  13        4PZ        -0.12373
  14 2   O  1S         -2.24698
  15        2S          2.33472
  16        2PX         0.00000
  17        2PY         0.00000
  18        2PZ        -0.00869
  19        3S         -0.28298
  20        3PX         0.00000
  21        3PY         0.00000
  22        3PZ         0.03055
  23        4S          0.37340
  24        4PX         0.00000
  25        4PY         0.00000
  26        4PZ        -0.09845
     Density Matrix:
                           1         2         3         4         5
   1 1   C  1S          0.66365
   2        2S          0.57455   0.51756
   3        2PX         0.00000   0.00000   0.03340
   4        2PY         0.00000   0.00000   0.00000   0.03340
   5        2PZ         0.01371   0.02115   0.00000   0.00000   0.12000
   6        3S         -0.13478  -0.22988  -0.00000  -0.00000  -0.04387
   7        3PX         0.00000   0.00000   0.05647   0.00000   0.00000
   8        3PY         0.00000   0.00000   0.00000   0.05647   0.00000
   9        3PZ         0.01043   0.02251   0.00000   0.00000   0.15507
  10        4S         -0.10895  -0.18728  -0.00000  -0.00000  -0.23815
  11        4PX         0.00000   0.00000   0.02534   0.00000   0.00000
  12        4PY         0.00000   0.00000   0.00000   0.02534   0.00000
  13        4PZ         0.02489   0.04211   0.00000   0.00000   0.03583
  14 2   O  1S          0.00329   0.00416  -0.00000  -0.00000  -0.01914
  15        2S          0.00529   0.00665  -0.00000  -0.00000  -0.03281
  16        2PX         0.00000   0.00000   0.06416   0.00000  -0.00000
  17        2PY         0.00000   0.00000   0.00000   0.06416  -0.00000
  18        2PZ         0.02392   0.03984  -0.00000  -0.00000  -0.09595
  19        3S         -0.01272  -0.01503   0.00000   0.00000   0.09869
  20        3PX         0.00000   0.00000   0.10282   0.00000  -0.00000
  21        3PY         0.00000   0.00000   0.00000   0.10282  -0.00000
  22        3PZ         0.03565   0.05960  -0.00000  -0.00000  -0.15732
  23        4S          0.02485   0.04718   0.00000   0.00000   0.05259
  24        4PX         0.00000   0.00000   0.09000   0.00000  -0.00000
  25        4PY         0.00000   0.00000   0.00000   0.09000  -0.00000
  26        4PZ         0.01048   0.01730  -0.00000  -0.00000  -0.09084
                           6         7         8         9        10
   6        3S          0.66616
   7        3PX        -0.00000   0.09549
   8        3PY        -0.00000   0.00000   0.09549
   9        3PZ        -0.06199   0.00000   0.00000   0.20234
  10        4S          0.52678  -0.00000  -0.00000  -0.31170   0.77014
  11        4PX        -0.00000   0.04285   0.00000   0.00000  -0.00000
  12        4PY        -0.00000   0.00000   0.04285   0.00000  -0.00000
  13        4PZ        -0.11707   0.00000   0.00000   0.04860  -0.14167
  14 2   O  1S         -0.00376  -0.00000  -0.00000  -0.01759   0.03009
  15        2S         -0.00542  -0.00000  -0.00000  -0.03047   0.05190
  16        2PX        -0.00000   0.10849   0.00000  -0.00000   0.00000
  17        2PY        -0.00000   0.00000   0.10849  -0.00000   0.00000
  18        2PZ        -0.12913  -0.00000  -0.00000  -0.12955   0.08050
  19        3S          0.00367   0.00000   0.00000   0.09313  -0.16352
  20        3PX        -0.00000   0.17387   0.00000  -0.00000   0.00000
  21        3PY        -0.00000   0.00000   0.17387  -0.00000   0.00000
  22        3PZ        -0.19414  -0.00000  -0.00000  -0.21051   0.14356
  23        4S         -0.17388   0.00000   0.00000   0.03856  -0.20405
  24        4PX        -0.00000   0.15218   0.00000  -0.00000   0.00000
  25        4PY        -0.00000   0.00000   0.15218  -0.00000   0.00000
  26        4PZ        -0.06485  -0.00000  -0.00000  -0.12440   0.11525
                          11        12        13        14        15
  11        4PX         0.01922
  12        4PY         0.00000   0.01922
  13        4PZ         0.00000   0.00000   0.02849
  14 2   O  1S          0.00000   0.00000   0.00194   0.63881
  15        2S          0.00000   0.00000   0.00272   0.57176   0.53172
  16        2PX         0.04868   0.00000  -0.00000  -0.00000  -0.00000
  17        2PY         0.00000   0.04868   0.00000  -0.00000  -0.00000
  18        2PZ        -0.00000   0.00000  -0.00791  -0.01117  -0.01639
  19        3S         -0.00000  -0.00000  -0.00445  -0.14403  -0.24752
  20        3PX         0.07801   0.00000  -0.00000  -0.00000  -0.00000
  21        3PY         0.00000   0.07801   0.00000  -0.00000  -0.00000
  22        3PZ        -0.00000   0.00000  -0.01414  -0.00516  -0.00928
  23        4S          0.00000   0.00000   0.01566  -0.12684  -0.21288
  24        4PX         0.06828   0.00000  -0.00000  -0.00000  -0.00000
  25        4PY         0.00000   0.06828   0.00000  -0.00000  -0.00000
  26        4PZ        -0.00000   0.00000  -0.01771  -0.01386  -0.02322
                          16        17        18        19        20
  16        2PX         0.12326
  17        2PY         0.00000   0.12326
  18        2PZ         0.00000   0.00000   0.14438
  19        3S          0.00000   0.00000   0.04166   0.73692
  20        3PX         0.19754   0.00000   0.00000   0.00000   0.31657
  21        3PY         0.00000   0.19754   0.00000   0.00000   0.00000
  22        3PZ         0.00000   0.00000   0.22449   0.03059   0.00000
  23        4S          0.00000   0.00000   0.11445   0.62091   0.00000
  24        4PX         0.17290   0.00000   0.00000   0.00000   0.27708
  25        4PY         0.00000   0.17290   0.00000   0.00000   0.00000
  26        4PZ         0.00000   0.00000   0.12713   0.06770   0.00000
                          21        22        23        24        25
  21        3PY         0.31657
  22        3PZ         0.00000   0.35084
  23        4S          0.00000   0.14853   0.58752
  24        4PX         0.00000   0.00000   0.00000   0.24252
  25        4PY         0.27708   0.00000   0.00000   0.00000   0.24252
  26        4PZ         0.00000   0.19695   0.11691   0.00000   0.00000
                          26
  26        4PZ         0.11732
    Full Mulliken population analysis:
                           1         2         3         4         5
   1 1   C  1S          0.66365
   2        2S          0.50471   0.51756
   3        2PX         0.00000   0.00000   0.03340
   4        2PY         0.00000   0.00000   0.00000   0.03340
   5        2PZ         0.00000   0.00000   0.00000   0.00000   0.12000
   6        3S         -0.04437  -0.09628   0.00000   0.00000   0.00000
   7        3PX         0.00000   0.00000   0.03553   0.00000   0.00000
   8        3PY         0.00000   0.00000   0.00000   0.03553   0.00000
   9        3PZ         0.00000   0.00000   0.00000   0.00000   0.09756
  10        4S         -0.01675  -0.03505   0.00000   0.00000   0.00000
  11        4PX         0.00000   0.00000   0.00558   0.00000   0.00000
  12        4PY         0.00000   0.00000   0.00000   0.00558   0.00000
  13        4PZ         0.00000   0.00000   0.00000   0.00000   0.00789
  14 2   O  1S          0.00000   0.00000  -0.00000  -0.00000  -0.00015
  15        2S          0.00000  -0.00000  -0.00000  -0.00000  -0.00020
  16        2PX        -0.00000  -0.00000   0.00050   0.00000   0.00000
  17        2PY        -0.00000  -0.00000   0.00000   0.00050   0.00000
  18        2PZ        -0.00008  -0.00004   0.00000   0.00000   0.00587
  19        3S         -0.00024  -0.00028   0.00000   0.00000   0.01291
  20        3PX        -0.00000  -0.00000   0.00666   0.00000   0.00000
  21        3PY        -0.00000  -0.00000   0.00000   0.00666   0.00000
  22        3PZ        -0.00201  -0.00385   0.00000   0.00000   0.04220
  23        4S          0.00191   0.00436   0.00000   0.00000   0.00798
  24        4PX        -0.00000  -0.00000   0.01272   0.00000   0.00000
  25        4PY        -0.00000  -0.00000   0.00000   0.01272   0.00000
  26        4PZ        -0.00160  -0.00327   0.00000   0.00000   0.01257
                           6         7         8         9        10
   6        3S          0.66616
   7        3PX         0.00000   0.09549
   8        3PY         0.00000   0.00000   0.09549
   9        3PZ         0.00000   0.00000   0.00000   0.20234
  10        4S          0.40810   0.00000   0.00000   0.00000   0.77014
  11        4PX         0.00000   0.02800   0.00000   0.00000   0.00000
  12        4PY         0.00000   0.00000   0.02800   0.00000   0.00000
  13        4PZ         0.00000   0.00000   0.00000   0.03176   0.00000
  14 2   O  1S         -0.00012  -0.00000  -0.00000  -0.00154   0.00169
  15        2S         -0.00018  -0.00000  -0.00000  -0.00285   0.00308
  16        2PX         0.00000   0.00613   0.00000   0.00000  -0.00000
  17        2PY         0.00000   0.00000   0.00613   0.00000  -0.00000
  18        2PZ         0.01077   0.00000   0.00000   0.02016  -0.00371
  19        3S          0.00082   0.00000   0.00000   0.04025  -0.05333
  20        3PX         0.00000   0.03718   0.00000   0.00000  -0.00000
  21        3PY         0.00000   0.00000   0.03718   0.00000  -0.00000
  22        3PZ         0.06130   0.00000   0.00000   0.08295  -0.02621
  23        4S         -0.07591   0.00000   0.00000   0.01719  -0.12666
  24        4PX         0.00000   0.06320   0.00000   0.00000  -0.00000
  25        4PY         0.00000   0.00000   0.06320   0.00000  -0.00000
  26        4PZ         0.03976   0.00000   0.00000   0.02624  -0.05574
                          11        12        13        14        15
  11        4PX         0.01922
  12        4PY         0.00000   0.01922
  13        4PZ         0.00000   0.00000   0.02849
  14 2   O  1S          0.00000   0.00000   0.00017   0.63881
  15        2S          0.00000   0.00000   0.00026   0.51572   0.53172
  16        2PX         0.00277   0.00000   0.00000   0.00000   0.00000
  17        2PY         0.00000   0.00277   0.00000   0.00000   0.00000
  18        2PZ         0.00000   0.00000   0.00011   0.00000   0.00000
  19        3S         -0.00000  -0.00000  -0.00202  -0.05077  -0.09937
  20        3PX         0.01758   0.00000   0.00000   0.00000   0.00000
  21        3PY         0.00000   0.01758   0.00000   0.00000   0.00000
  22        3PZ         0.00000   0.00000   0.00042   0.00000   0.00000
  23        4S          0.00000   0.00000   0.01004  -0.02003  -0.03625
  24        4PX         0.04076   0.00000  -0.00000   0.00000   0.00000
  25        4PY         0.00000   0.04076   0.00000   0.00000   0.00000
  26        4PZ        -0.00000   0.00000  -0.00173   0.00000   0.00000
                          16        17        18        19        20
  16        2PX         0.12326
  17        2PY         0.00000   0.12326
  18        2PZ         0.00000   0.00000   0.14438
  19        3S          0.00000   0.00000   0.00000   0.73692
  20        3PX         0.12089   0.00000   0.00000   0.00000   0.31657
  21        3PY         0.00000   0.12089   0.00000   0.00000   0.00000
  22        3PZ         0.00000   0.00000   0.13739   0.00000   0.00000
  23        4S          0.00000   0.00000   0.00000   0.46836   0.00000
  24        4PX         0.03409   0.00000   0.00000   0.00000   0.17319
  25        4PY         0.00000   0.03409   0.00000   0.00000   0.00000
  26        4PZ         0.00000   0.00000   0.02507   0.00000   0.00000
                          21        22        23        24        25
  21        3PY         0.31657
  22        3PZ         0.00000   0.35084
  23        4S          0.00000   0.00000   0.58752
  24        4PX         0.00000   0.00000   0.00000   0.24252
  25        4PY         0.17319   0.00000   0.00000   0.00000   0.24252
  26        4PZ         0.00000   0.12311   0.00000   0.00000   0.00000
                          26
  26        4PZ         0.11732
     Gross orbital populations:
                           1
   1 1   C  1S          1.10523
   2        2S          0.88787
   3        2PX         0.09439
   4        2PY         0.09439
   5        2PZ         0.30662
   6        3S          0.97006
   7        3PX         0.26552
   8        3PY         0.26552
   9        3PZ         0.51405
  10        4S          0.86556
  11        4PX         0.11391
  12        4PY         0.11391
  13        4PZ         0.07538
  14 2   O  1S          1.08377
  15        2S          0.91192
  16        2PX         0.28764
  17        2PY         0.28764
  18        2PZ         0.33992
  19        3S          1.05325
  20        3PX         0.67206
  21        3PY         0.67206
  22        3PZ         0.76613
  23        4S          0.83851
  24        4PX         0.56648
  25        4PY         0.56648
  26        4PZ         0.28173
          Condensed to atoms (all electrons):
               1          2
     1  C    5.256121   0.416279
     2  O    0.416279   7.911321
 Mulliken charges:
               1
     1  C    0.327600
     2  O   -0.327600
 Sum of Mulliken charges =  -0.00000
 Mulliken charges with hydrogens summed into heavy atoms:
               1
     1  C    0.327600
     2  O   -0.327600
 Electronic spatial extent (au):  <R**2>=             40.2141
 Charge=              0.0000 electrons
 Dipole moment (field-independent basis, Debye):
    X=             -0.0000    Y=             -0.0000    Z=             -0.4766  Tot=              0.4766
 Quadrupole moment (field-independent basis, Debye-Ang):
   XX=            -10.1325   YY=            -10.1325   ZZ=            -13.0303
   XY=             -0.0000   XZ=              0.0000   YZ=              0.0000
 Traceless Quadrupole moment (field-independent basis, Debye-Ang):
   XX=              0.9659   YY=              0.9659   ZZ=             -1.9319
   XY=             -0.0000   XZ=              0.0000   YZ=              0.0000
 Octapole moment (field-independent basis, Debye-Ang**2):
  XXX=              0.0000  YYY=             -0.0000  ZZZ=              5.9364  XYY=              0.0000
  XXY=             -0.0000  XXZ=              0.9765  XZZ=              0.0000  YZZ=             -0.0000
  YYZ=              0.9765  XYZ=             -0.0000
 Hexadecapole moment (field-independent basis, Debye-Ang**3):
 XXXX=             -8.5391 YYYY=             -8.5391 ZZZZ=            -36.3783 XXXY=             -0.0000
 XXXZ=             -0.0000 YYYX=             -0.0000 YYYZ=              0.0000 ZZZX=             -0.0000
 ZZZY=              0.0000 XXYY=             -2.8464 XXZZ=             -6.9314 YYZZ=             -6.9314
 XXYZ=              0.0000 YYXZ=             -0.0000 ZZXY=             -0.0000
 N-N= 2.260444586546D+01 E-N=-3.107595748958D+02  KE= 1.127423893893D+02
 Symmetry A1   KE= 1.047992882043D+02
 Symmetry A2   KE= 0.000000000000D+00
 Symmetry B1   KE= 3.971550592470D+00
 Symmetry B2   KE= 3.971550592470D+00
 Orbital energies and kinetic energies (alpha):
                                 1                 2
   1         O               -20.683655         29.200216
   2         O               -11.390355         16.033767
   3         O                -1.567519          2.911058
   4         O                -0.800353          2.665848
   5         O                -0.648327          1.985775
   6         O                -0.648327          1.985775
   7         O                -0.556810          1.588755
   8         V                 0.132798          1.480998
   9         V                 0.132798          1.480998
  10         V                 0.348185          0.815423
  11         V                 0.563180          1.455947
  12         V                 0.563180          1.455947
  13         V                 0.596165          1.750180
  14         V                 0.869219          2.037271
  15         V                 1.044582          2.568959
  16         V                 1.044582          2.568959
  17         V                 1.079353          4.049800
  18         V                 1.584091          4.517354
  19         V                 2.907438          6.352602
  20         V                 2.907438          6.352602
  21         V                 3.000883          6.379522
  22         V                 5.267170         11.859381
  23         V                 5.267170         11.859381
  24         V                 5.420705         12.098888
  25         V                24.339049         60.211735
  26         V                51.389107        123.836905
 Total kinetic energy from orbitals= 1.127423893893D+02
 No NMR shielding tensors so no spin-rotation constants.
 Leave Link  601 at Mon Jun 12 20:20:39 2023, MaxMem=   104857600 cpu:               0.1 elap:               0.1
 (Enter /home/linux-pohl-v2/Escritorio/Gaussian/g16/l9999.exe)

 Test job not archived.
 1\1\GINC-RAMITA\FOpt\RHF\6-311G\C1O1\LINUX-POHL-V2\12-Jun-2023\0\\#P H
 F/6-311G # Opt( MaxCycle=10) # Gfinput IOP(6/7=3) Pop=full Density Tes
 t # Units(Ang,Deg)\\Input file generated by gabedit...\\0,1\C,-2.22702
 49257,0.4992032383,-11.8462325075\O,-1.1043240743,0.4878627617,-11.800
 3524925\\Version=EM64L-G16RevB.01\State=1-SG\HF=-112.699492\RMSD=2.152
 e-09\RMSF=1.084e-05\Dipole=-0.1873433,0.0018924,-0.0076559\Quadrupole=
 -1.4324995,0.7179358,0.7145637,0.0217239,-0.0878881,0.0008878\PG=C*V [
 C*(C1O1)]\\@


 IN THE LONG RUN, DIGGING FOR TRUTH HAS ALWAYS PROVED NOT ONLY 
 MORE INTERESTING BUT MORE PROFITABLE THAN DIGGING FOR GOLD.

                             -- GEORGE R. HARRISON
 Job cpu time:       0 days  0 hours  0 minutes  5.8 seconds.
 Elapsed time:       0 days  0 hours  0 minutes  5.2 seconds.
 File lengths (MBytes):  RWF=      6 Int=      0 D2E=      0 Chk=      1 Scr=      1
 Normal termination of Gaussian 16 at Mon Jun 12 20:20:39 2023.
