 Entering Gaussian System, Link 0=g16
 Input=coes.com
 Output=coes.log
 Initial command:
 /home/linux-pohl-v2/Escritorio/Gaussian/g16/l1.exe "/tmp/Gau-34273.inp" -scrdir="/tmp/"
 Entering Link 1 = /home/linux-pohl-v2/Escritorio/Gaussian/g16/l1.exe PID=     34275.
  
 Copyright (c) 1988-2017, Gaussian, Inc.  All Rights Reserved.
  
 This is part of the Gaussian(R) 16 program.  It is based on
 the Gaussian(R) 09 system (copyright 2009, Gaussian, Inc.),
 the Gaussian(R) 03 system (copyright 2003, Gaussian, Inc.),
 the Gaussian(R) 98 system (copyright 1998, Gaussian, Inc.),
 the Gaussian(R) 94 system (copyright 1995, Gaussian, Inc.),
 the Gaussian 92(TM) system (copyright 1992, Gaussian, Inc.),
 the Gaussian 90(TM) system (copyright 1990, Gaussian, Inc.),
 the Gaussian 88(TM) system (copyright 1988, Gaussian, Inc.),
 the Gaussian 86(TM) system (copyright 1986, Carnegie Mellon
 University), and the Gaussian 82(TM) system (copyright 1983,
 Carnegie Mellon University). Gaussian is a federally registered
 trademark of Gaussian, Inc.
  
 This software contains proprietary and confidential information,
 including trade secrets, belonging to Gaussian, Inc.
  
 This software is provided under written license and may be
 used, copied, transmitted, or stored only in accord with that
 written license.
  
 The following legend is applicable only to US Government
 contracts under FAR:
  
                    RESTRICTED RIGHTS LEGEND
  
 Use, reproduction and disclosure by the US Government is
 subject to restrictions as set forth in subparagraphs (a)
 and (c) of the Commercial Computer Software - Restricted
 Rights clause in FAR 52.227-19.
  
 Gaussian, Inc.
 340 Quinnipiac St., Bldg. 40, Wallingford CT 06492
  
  
 ---------------------------------------------------------------
 Warning -- This program may not be used in any manner that
 competes with the business of Gaussian, Inc. or will provide
 assistance to any competitor of Gaussian, Inc.  The licensee
 of this program is prohibited from giving any competitor of
 Gaussian, Inc. access to this program.  By using this program,
 the user acknowledges that Gaussian, Inc. is engaged in the
 business of creating and licensing software in the field of
 computational chemistry and represents and warrants to the
 licensee that it is not a competitor of Gaussian, Inc. and that
 it will not use this program in any manner prohibited above.
 ---------------------------------------------------------------
  

 Cite this work as:
 Gaussian 16, Revision B.01,
 M. J. Frisch, G. W. Trucks, H. B. Schlegel, G. E. Scuseria, 
 M. A. Robb, J. R. Cheeseman, G. Scalmani, V. Barone, 
 G. A. Petersson, H. Nakatsuji, X. Li, M. Caricato, A. V. Marenich, 
 J. Bloino, B. G. Janesko, R. Gomperts, B. Mennucci, H. P. Hratchian, 
 J. V. Ortiz, A. F. Izmaylov, J. L. Sonnenberg, D. Williams-Young, 
 F. Ding, F. Lipparini, F. Egidi, J. Goings, B. Peng, A. Petrone, 
 T. Henderson, D. Ranasinghe, V. G. Zakrzewski, J. Gao, N. Rega, 
 G. Zheng, W. Liang, M. Hada, M. Ehara, K. Toyota, R. Fukuda, 
 J. Hasegawa, M. Ishida, T. Nakajima, Y. Honda, O. Kitao, H. Nakai, 
 T. Vreven, K. Throssell, J. A. Montgomery, Jr., J. E. Peralta, 
 F. Ogliaro, M. J. Bearpark, J. J. Heyd, E. N. Brothers, K. N. Kudin, 
 V. N. Staroverov, T. A. Keith, R. Kobayashi, J. Normand, 
 K. Raghavachari, A. P. Rendell, J. C. Burant, S. S. Iyengar, 
 J. Tomasi, M. Cossi, J. M. Millam, M. Klene, C. Adamo, R. Cammi, 
 J. W. Ochterski, R. L. Martin, K. Morokuma, O. Farkas, 
 J. B. Foresman, and D. J. Fox, Gaussian, Inc., Wallingford CT, 2016.
 
 ******************************************
 Gaussian 16:  EM64L-G16RevB.01 20-Dec-2017
                12-Jun-2023 
 ******************************************
 %oldchk=co
 Copying data from "co.chk" to current chk file "/tmp/Gau-34275.chk"
 IOpt=  2 FromEx=T IUOpen= 4 IOptOp= 5 NList=   0 IFRang= 0 IUIn= 4 IUOut= 2.
 ------------------------------------------------
 #P B3LYP/6-311G TD(Triplets) # Opt Geom=AllCheck
 ------------------------------------------------
 1/18=20,19=15,26=3,29=7,38=1/1,3;
 2/9=110,12=2,40=1/2;
 3/5=4,6=6,11=9,14=-4,25=1,30=1,71=1,74=-5/1,2,3,8;
 4//1;
 5/5=2,38=5/2;
 8/6=1,10=2/1;
 9/15=2,42=1,48=3,70=2/14;
 10/5=4/2;
 6/7=2,8=2,9=2,10=2/1;
 7/12=6,13=5/1,2,3,16;
 1/18=20,19=15,26=3/3(2);
 2/9=110/2;
 99//99;
 2/9=110/2;
 3/5=4,6=6,11=9,14=-2,25=1,30=1,71=1,74=-5/1,2,3,8;
 4/5=5,16=3,69=1/1;
 5/5=2,38=5/2;
 8/6=1,10=2/1;
 9/15=2,42=1,48=3,49=4,70=2/14;
 10/5=4/2;
 7/12=6,13=5/1,2,3,16;
 1/18=20,19=15,26=3/3(-8);
 2/9=110/2;
 6/7=2,8=2,9=2,10=2/1;
 99/9=10/99;
 Leave Link    1 at Mon Jun 12 20:09:51 2023, MaxMem=   104857600 cpu:               0.0 elap:               0.0
 (Enter /home/linux-pohl-v2/Escritorio/Gaussian/g16/l101.exe)
 Structure from the checkpoint file:  "/tmp/Gau-34275.chk"
 ----------------------------------
 Input file generated by gabedit...
 ----------------------------------
 Charge =  0 Multiplicity = 1
 Redundant internal coordinates found in file.  (old form).
 C,0,-2.2270249257,0.4992032383,-11.8462325075
 O,0,-1.1043240743,0.4878627617,-11.8003524925
 Recover connectivity data from disk.
 ITRead=  0  0
 MicOpt= -1 -1
 NAtoms=      2 NQM=        2 NQMF=       0 NMMI=      0 NMMIF=      0
                NMic=       0 NMicF=      0.
                    Isotopes and Nuclear Properties:
 (Nuclear quadrupole moments (NQMom) in fm**2, nuclear magnetic moments (NMagM)
  in nuclear magnetons)

  Atom         1           2
 IAtWgt=          12          16
 AtmWgt=  12.0000000  15.9949146
 NucSpn=           0           0
 AtZEff=   3.6000000   5.6000000
 NQMom=    0.0000000   0.0000000
 NMagM=    0.0000000   0.0000000
 AtZNuc=   6.0000000   8.0000000
 Leave Link  101 at Mon Jun 12 20:09:51 2023, MaxMem=   104857600 cpu:               0.1 elap:               0.2
 (Enter /home/linux-pohl-v2/Escritorio/Gaussian/g16/l103.exe)

 GradGradGradGradGradGradGradGradGradGradGradGradGradGradGradGradGradGrad
 Berny optimization.
 Initialization pass.
                           ----------------------------
                           !    Initial Parameters    !
                           ! (Angstroms and Degrees)  !
 --------------------------                            --------------------------
 ! Name  Definition              Value          Derivative Info.                !
 --------------------------------------------------------------------------------
 ! R1    R(1,2)                  1.1237         estimate D2E/DX2                !
 --------------------------------------------------------------------------------
 Trust Radius=3.00D-01 FncErr=1.00D-07 GrdErr=1.00D-06 EigMax=2.50D+02 EigMin=1.00D-04
 Number of steps in this run=     20 maximum allowed number of steps=    100.
 GradGradGradGradGradGradGradGradGradGradGradGradGradGradGradGradGradGrad

 Leave Link  103 at Mon Jun 12 20:09:51 2023, MaxMem=   104857600 cpu:               0.0 elap:               0.0
 (Enter /home/linux-pohl-v2/Escritorio/Gaussian/g16/l202.exe)
                          Input orientation:                          
 ---------------------------------------------------------------------
 Center     Atomic      Atomic             Coordinates (Angstroms)
 Number     Number       Type             X           Y           Z
 ---------------------------------------------------------------------
      1          6           0       -2.227025    0.499203  -11.846233
      2          8           0       -1.104324    0.487863  -11.800352
 ---------------------------------------------------------------------
 Stoichiometry    CO
 Framework group  C*V[C*(CO)]
 Deg. of freedom     1
 Full point group                 C*V     NOp   4
 RotChk:  IX=0 Diff= 4.26D-16
 Largest Abelian subgroup         C2V     NOp   4
 Largest concise Abelian subgroup C1      NOp   1
                         Standard orientation:                         
 ---------------------------------------------------------------------
 Center     Atomic      Atomic             Coordinates (Angstroms)
 Number     Number       Type             X           Y           Z
 ---------------------------------------------------------------------
      1          6           0       -0.000000   -0.000000   -0.642112
      2          8           0        0.000000    0.000000    0.481584
 ---------------------------------------------------------------------
 Rotational constants (GHZ):           0.0000000          58.3762461          58.3762461
 Leave Link  202 at Mon Jun 12 20:09:51 2023, MaxMem=   104857600 cpu:               0.0 elap:               0.0
 (Enter /home/linux-pohl-v2/Escritorio/Gaussian/g16/l301.exe)
 Standard basis: 6-311G (5D, 7F)
 Ernie: Thresh=  0.10000D-02 Tol=  0.10000D-05 Strict=F.
 There are    14 symmetry adapted cartesian basis functions of A1  symmetry.
 There are     0 symmetry adapted cartesian basis functions of A2  symmetry.
 There are     6 symmetry adapted cartesian basis functions of B1  symmetry.
 There are     6 symmetry adapted cartesian basis functions of B2  symmetry.
 There are    14 symmetry adapted basis functions of A1  symmetry.
 There are     0 symmetry adapted basis functions of A2  symmetry.
 There are     6 symmetry adapted basis functions of B1  symmetry.
 There are     6 symmetry adapted basis functions of B2  symmetry.
    26 basis functions,    52 primitive gaussians,    26 cartesian basis functions
     7 alpha electrons        7 beta electrons
       nuclear repulsion energy        22.6044458655 Hartrees.
 IExCor=  402 DFT=T Ex+Corr=B3LYP ExCW=0 ScaHFX=  0.200000
 ScaDFX=  0.800000  0.720000  1.000000  0.810000 ScalE2=  1.000000  1.000000
 IRadAn=      5 IRanWt=     -1 IRanGd=            0 ICorTp=0 IEmpDi=  4
 NAtoms=    2 NActive=    2 NUniq=    2 SFac= 1.00D+00 NAtFMM=   60 NAOKFM=F Big=F
 Integral buffers will be    131072 words long.
 Regular integral format.
 Two-electron integral symmetry is turned on.
 Leave Link  301 at Mon Jun 12 20:09:51 2023, MaxMem=   104857600 cpu:               0.0 elap:               0.0
 (Enter /home/linux-pohl-v2/Escritorio/Gaussian/g16/l302.exe)
 NPDir=0 NMtPBC=     1 NCelOv=     1 NCel=       1 NClECP=     1 NCelD=      1
         NCelK=      1 NCelE2=     1 NClLst=     1 CellRange=     0.0.
 One-electron integrals computed using PRISM.
 One-electron integral symmetry used in STVInt
 NBasis=    26 RedAO= T EigKep=  2.19D-02  NBF=    14     0     6     6
 NBsUse=    26 1.00D-06 EigRej= -1.00D+00 NBFU=    14     0     6     6
 Precomputing XC quadrature grid using
 IXCGrd= 4 IRadAn=           5 IRanWt=          -1 IRanGd=           0 AccXCQ= 0.00D+00.
 Generated NRdTot=       0 NPtTot=           0 NUsed=           0 NTot=          32
 NSgBfM=    26    26    26    26    26 MxSgAt=     2 MxSgA2=     2.
 Leave Link  302 at Mon Jun 12 20:09:51 2023, MaxMem=   104857600 cpu:               0.1 elap:               0.1
 (Enter /home/linux-pohl-v2/Escritorio/Gaussian/g16/l303.exe)
 DipDrv:  MaxL=1.
 Leave Link  303 at Mon Jun 12 20:09:51 2023, MaxMem=   104857600 cpu:               0.0 elap:               0.0
 (Enter /home/linux-pohl-v2/Escritorio/Gaussian/g16/l308.exe)
 Leave Link  308 at Mon Jun 12 20:09:51 2023, MaxMem=   104857600 cpu:               0.0 elap:               0.0
 (Enter /home/linux-pohl-v2/Escritorio/Gaussian/g16/l401.exe)
 ExpMin= 1.46D-01 ExpMax= 8.59D+03 ExpMxC= 1.30D+03 IAcc=3 IRadAn=         5 AccDes= 0.00D+00
 Harris functional with IExCor=  402 and IRadAn=       5 diagonalized for initial guess.
 HarFok:  IExCor=  402 AccDes= 0.00D+00 IRadAn=         5 IDoV= 1 UseB2=F ITyADJ=14
 ICtDFT=  3500011 ScaDFX=  1.000000  1.000000  1.000000  1.000000
 FoFCou: FMM=F IPFlag=           0 FMFlag=      100000 FMFlg1=           0
         NFxFlg=           0 DoJE=T BraDBF=F KetDBF=T FulRan=T
         wScrn=  0.000000 ICntrl=       500 IOpCl=  0 I1Cent=   200000004 NGrid=           0
         NMat0=    1 NMatS0=      1 NMatT0=    0 NMatD0=    1 NMtDS0=    0 NMtDT0=    0
 Petite list used in FoFCou.
 Harris En= -113.296640459333    
 JPrj=0 DoOrth=F DoCkMO=F.
 Initial guess orbital symmetries:
       Occupied  (SG) (SG) (SG) (SG) (PI) (PI) (SG)
       Virtual   (PI) (PI) (SG) (PI) (PI) (SG) (SG) (SG) (PI) (PI)
                 (SG) (PI) (PI) (SG) (PI) (PI) (SG) (SG) (SG)
 The electronic state of the initial guess is 1-SG.
 Leave Link  401 at Mon Jun 12 20:09:51 2023, MaxMem=   104857600 cpu:               0.1 elap:               0.1
 (Enter /home/linux-pohl-v2/Escritorio/Gaussian/g16/l502.exe)
 Keep R1 ints in memory in symmetry-blocked form, NReq=927177.
 FoFCou: FMM=F IPFlag=           0 FMFlag=           0 FMFlg1=           0
         NFxFlg=           0 DoJE=F BraDBF=F KetDBF=F FulRan=T
         wScrn=  0.000000 ICntrl=       600 IOpCl=  0 I1Cent=           0 NGrid=           0
         NMat0=    1 NMatS0=    351 NMatT0=    0 NMatD0=    1 NMtDS0=    0 NMtDT0=    0
 Petite list used in FoFCou.
 Closed shell SCF:
 Using DIIS extrapolation, IDIIS=  1040.
 NGot=   104857600 LenX=   104835198 LenY=   104834081
 Requested convergence on RMS density matrix=1.00D-08 within 128 cycles.
 Requested convergence on MAX density matrix=1.00D-06.
 Requested convergence on             energy=1.00D-06.
 No special actions if energy rises.
 Integral accuracy reduced to 1.0D-05 until final iterations.

 Cycle   1  Pass 0  IDiag  1:
 E= -113.270325903318    
 DIIS: error= 4.30D-02 at cycle   1 NSaved=   1.
 NSaved= 1 IEnMin= 1 EnMin= -113.270325903318     IErMin= 1 ErrMin= 4.30D-02
 ErrMax= 4.30D-02  0.00D+00 EMaxC= 1.00D-01 BMatC= 4.55D-02 BMatP= 4.55D-02
 IDIUse=3 WtCom= 5.70D-01 WtEn= 4.30D-01
 Coeff-Com:  0.100D+01
 Coeff-En:   0.100D+01
 Coeff:      0.100D+01
 Gap=     0.368 Goal=   None    Shift=    0.000
 GapD=    0.368 DampG=1.000 DampE=0.500 DampFc=0.5000 IDamp=-1.
 Damping current iteration by 5.00D-01
 RMSDP=9.33D-03 MaxDP=7.78D-02              OVMax= 1.63D-01

 Cycle   2  Pass 0  IDiag  1:
 E= -113.262998443131     Delta-E=        0.007327460187 Rises=F Damp=T
 DIIS: error= 3.33D-02 at cycle   2 NSaved=   2.
 NSaved= 2 IEnMin= 1 EnMin= -113.270325903318     IErMin= 2 ErrMin= 3.33D-02
 ErrMax= 3.33D-02  0.00D+00 EMaxC= 1.00D-01 BMatC= 1.74D-02 BMatP= 4.55D-02
 IDIUse=3 WtCom= 6.67D-01 WtEn= 3.33D-01
 Coeff-Com:  0.358D+00 0.642D+00
 Coeff-En:   0.581D+00 0.419D+00
 Coeff:      0.432D+00 0.568D+00
 Gap=     0.347 Goal=   None    Shift=    0.000
 RMSDP=5.14D-03 MaxDP=7.70D-02 DE= 7.33D-03 OVMax= 1.24D-01

 Cycle   3  Pass 0  IDiag  1:
 E= -113.294945307787     Delta-E=       -0.031946864656 Rises=F Damp=F
 DIIS: error= 4.79D-03 at cycle   3 NSaved=   3.
 NSaved= 3 IEnMin= 3 EnMin= -113.294945307787     IErMin= 3 ErrMin= 4.79D-03
 ErrMax= 4.79D-03  0.00D+00 EMaxC= 1.00D-01 BMatC= 7.34D-04 BMatP= 1.74D-02
 IDIUse=3 WtCom= 9.52D-01 WtEn= 4.79D-02
 Coeff-Com:  0.825D-01 0.176D+00 0.742D+00
 Coeff-En:   0.000D+00 0.000D+00 0.100D+01
 Coeff:      0.786D-01 0.167D+00 0.754D+00
 Gap=     0.343 Goal=   None    Shift=    0.000
 RMSDP=1.77D-03 MaxDP=2.98D-02 DE=-3.19D-02 OVMax= 1.11D-02

 Cycle   4  Pass 0  IDiag  1:
 E= -113.295605998461     Delta-E=       -0.000660690674 Rises=F Damp=F
 DIIS: error= 1.22D-03 at cycle   4 NSaved=   4.
 NSaved= 4 IEnMin= 4 EnMin= -113.295605998461     IErMin= 4 ErrMin= 1.22D-03
 ErrMax= 1.22D-03  0.00D+00 EMaxC= 1.00D-01 BMatC= 5.20D-05 BMatP= 7.34D-04
 IDIUse=3 WtCom= 9.88D-01 WtEn= 1.22D-02
 Coeff-Com:  0.856D-02 0.234D-02 0.207D+00 0.782D+00
 Coeff-En:   0.000D+00 0.000D+00 0.000D+00 0.100D+01
 Coeff:      0.846D-02 0.231D-02 0.205D+00 0.784D+00
 Gap=     0.343 Goal=   None    Shift=    0.000
 RMSDP=3.00D-04 MaxDP=4.66D-03 DE=-6.61D-04 OVMax= 2.08D-03

 Cycle   5  Pass 0  IDiag  1:
 E= -113.295655524168     Delta-E=       -0.000049525707 Rises=F Damp=F
 DIIS: error= 1.66D-04 at cycle   5 NSaved=   5.
 NSaved= 5 IEnMin= 5 EnMin= -113.295655524168     IErMin= 5 ErrMin= 1.66D-04
 ErrMax= 1.66D-04  0.00D+00 EMaxC= 1.00D-01 BMatC= 4.86D-07 BMatP= 5.20D-05
 IDIUse=3 WtCom= 9.98D-01 WtEn= 1.66D-03
 Coeff-Com:  0.171D-02-0.384D-02 0.156D-01 0.852D-01 0.901D+00
 Coeff-En:   0.000D+00 0.000D+00 0.000D+00 0.000D+00 0.100D+01
 Coeff:      0.171D-02-0.383D-02 0.156D-01 0.850D-01 0.902D+00
 Gap=     0.343 Goal=   None    Shift=    0.000
 RMSDP=1.66D-05 MaxDP=1.05D-04 DE=-4.95D-05 OVMax= 1.84D-04

 Cycle   6  Pass 0  IDiag  1:
 E= -113.295655878966     Delta-E=       -0.000000354798 Rises=F Damp=F
 DIIS: error= 5.59D-06 at cycle   6 NSaved=   6.
 NSaved= 6 IEnMin= 6 EnMin= -113.295655878966     IErMin= 6 ErrMin= 5.59D-06
 ErrMax= 5.59D-06  0.00D+00 EMaxC= 1.00D-01 BMatC= 5.90D-10 BMatP= 4.86D-07
 IDIUse=1 WtCom= 1.00D+00 WtEn= 0.00D+00
 Coeff-Com:  0.673D-05-0.631D-04 0.141D-03-0.349D-03-0.178D-01 0.102D+01
 Coeff:      0.673D-05-0.631D-04 0.141D-03-0.349D-03-0.178D-01 0.102D+01
 Gap=     0.343 Goal=   None    Shift=    0.000
 RMSDP=7.75D-07 MaxDP=8.29D-06 DE=-3.55D-07 OVMax= 5.34D-06

 Initial convergence to 1.0D-05 achieved.  Increase integral accuracy.
 Cycle   7  Pass 1  IDiag  1:
 E= -113.295654837520     Delta-E=        0.000001041446 Rises=F Damp=F
 DIIS: error= 8.79D-07 at cycle   1 NSaved=   1.
 NSaved= 1 IEnMin= 1 EnMin= -113.295654837520     IErMin= 1 ErrMin= 8.79D-07
 ErrMax= 8.79D-07  0.00D+00 EMaxC= 1.00D-01 BMatC= 2.60D-11 BMatP= 2.60D-11
 IDIUse=1 WtCom= 1.00D+00 WtEn= 0.00D+00
 Coeff-Com:  0.100D+01
 Coeff:      0.100D+01
 Gap=     0.343 Goal=   None    Shift=    0.000
 RMSDP=7.75D-07 MaxDP=8.29D-06 DE= 1.04D-06 OVMax= 3.75D-06

 Cycle   8  Pass 1  IDiag  1:
 E= -113.295654837477     Delta-E=        0.000000000042 Rises=F Damp=F
 DIIS: error= 2.48D-06 at cycle   2 NSaved=   2.
 NSaved= 2 IEnMin= 1 EnMin= -113.295654837520     IErMin= 1 ErrMin= 8.79D-07
 ErrMax= 2.48D-06  0.00D+00 EMaxC= 1.00D-01 BMatC= 9.19D-11 BMatP= 2.60D-11
 IDIUse=1 WtCom= 1.00D+00 WtEn= 0.00D+00
 Coeff-Com:  0.672D+00 0.328D+00
 Coeff:      0.672D+00 0.328D+00
 Gap=     0.343 Goal=   None    Shift=    0.000
 RMSDP=2.01D-07 MaxDP=2.30D-06 DE= 4.25D-11 OVMax= 3.19D-06

 Cycle   9  Pass 1  IDiag  1:
 E= -113.295654837545     Delta-E=       -0.000000000067 Rises=F Damp=F
 DIIS: error= 3.77D-07 at cycle   3 NSaved=   3.
 NSaved= 3 IEnMin= 3 EnMin= -113.295654837545     IErMin= 3 ErrMin= 3.77D-07
 ErrMax= 3.77D-07  0.00D+00 EMaxC= 1.00D-01 BMatC= 2.87D-12 BMatP= 2.60D-11
 IDIUse=1 WtCom= 1.00D+00 WtEn= 0.00D+00
 Coeff-Com:  0.703D-01 0.155D+00 0.775D+00
 Coeff:      0.703D-01 0.155D+00 0.775D+00
 Gap=     0.343 Goal=   None    Shift=    0.000
 RMSDP=3.54D-08 MaxDP=3.89D-07 DE=-6.73D-11 OVMax= 3.38D-07

 Cycle  10  Pass 1  IDiag  1:
 E= -113.295654837546     Delta-E=       -0.000000000002 Rises=F Damp=F
 DIIS: error= 6.31D-08 at cycle   4 NSaved=   4.
 NSaved= 4 IEnMin= 4 EnMin= -113.295654837546     IErMin= 4 ErrMin= 6.31D-08
 ErrMax= 6.31D-08  0.00D+00 EMaxC= 1.00D-01 BMatC= 1.31D-13 BMatP= 2.87D-12
 IDIUse=1 WtCom= 1.00D+00 WtEn= 0.00D+00
 Coeff-Com: -0.892D-02 0.532D-01 0.244D+00 0.712D+00
 Coeff:     -0.892D-02 0.532D-01 0.244D+00 0.712D+00
 Gap=     0.343 Goal=   None    Shift=    0.000
 RMSDP=1.63D-08 MaxDP=2.71D-07 DE=-1.71D-12 OVMax= 1.03D-07

 Cycle  11  Pass 1  IDiag  1:
 E= -113.295654837547     Delta-E=       -0.000000000000 Rises=F Damp=F
 DIIS: error= 4.93D-09 at cycle   5 NSaved=   5.
 NSaved= 5 IEnMin= 5 EnMin= -113.295654837547     IErMin= 5 ErrMin= 4.93D-09
 ErrMax= 4.93D-09  0.00D+00 EMaxC= 1.00D-01 BMatC= 4.31D-16 BMatP= 1.31D-13
 IDIUse=1 WtCom= 1.00D+00 WtEn= 0.00D+00
 Coeff-Com: -0.956D-03 0.327D-02 0.806D-02 0.144D-01 0.975D+00
 Coeff:     -0.956D-03 0.327D-02 0.806D-02 0.144D-01 0.975D+00
 Gap=     0.343 Goal=   None    Shift=    0.000
 RMSDP=9.34D-10 MaxDP=1.43D-08 DE=-8.53D-14 OVMax= 5.43D-09

 SCF Done:  E(RB3LYP) =  -113.295654838     A.U. after   11 cycles
            NFock= 11  Conv=0.93D-09     -V/T= 2.0013
 KE= 1.131488869291D+02 PE=-3.114253969806D+02 EE= 6.237640934857D+01
 Leave Link  502 at Mon Jun 12 20:09:52 2023, MaxMem=   104857600 cpu:               0.3 elap:               0.3
 (Enter /home/linux-pohl-v2/Escritorio/Gaussian/g16/l801.exe)
 DoSCS=F DFT=T ScalE2(SS,OS)=  1.000000  1.000000
 ExpMin= 1.46D-01 ExpMax= 8.59D+03 ExpMxC= 1.30D+03 IAcc=3 IRadAn=         5 AccDes= 0.00D+00
 HarFok:  IExCor=  205 AccDes= 0.00D+00 IRadAn=         5 IDoV=-2 UseB2=F ITyADJ=14
 ICtDFT= 12500011 ScaDFX=  1.000000  1.000000  1.000000  1.000000
 Largest valence mixing into a core orbital is  5.29D-05
 Largest core mixing into a valence orbital is  1.13D-05
 Range of M.O.s used for correlation:     3    26
 NBasis=    26 NAE=     7 NBE=     7 NFC=     2 NFV=     0
 NROrb=     24 NOA=     5 NOB=     5 NVA=    19 NVB=    19
 Leave Link  801 at Mon Jun 12 20:09:52 2023, MaxMem=   104857600 cpu:               0.1 elap:               0.1
 (Enter /home/linux-pohl-v2/Escritorio/Gaussian/g16/l914.exe)
 RHF ground state
 Keep R1, R2, and R3 ints in memory in symmetry-blocked form, NReq=1019580.
 FoFCou: FMM=F IPFlag=           0 FMFlag=           0 FMFlg1=           0
         NFxFlg=           0 DoJE=F BraDBF=F KetDBF=F FulRan=T
         wScrn=  0.000000 ICntrl=       600 IOpCl=  0 I1Cent=           0 NGrid=           0
         NMat0=    1 NMatS0=    351 NMatT0=    0 NMatD0=    1 NMtDS0=    0 NMtDT0=    0
 Petite list used in FoFCou.
 MDV=   104857600 DFT=T DoStab=F Mixed=T DoRPA=T DoScal=F NonHer=T
 Making orbital integer symmetry assigments:
 Orbital symmetries:
       Occupied  (SG) (SG) (SG) (SG) (PI) (PI) (SG)
       Virtual   (PI) (PI) (SG) (PI) (PI) (SG) (SG) (SG) (PI) (PI)
                 (SG) (PI) (PI) (SG) (PI) (PI) (SG) (SG) (SG)
    12 initial guesses have been made.
 Convergence on wavefunction:    0.000001000000000
 Davidson Disk Diagonalization:  ConvIn= 1.00D-06 SkipCon=T Conv= 1.00D-06.
 Max sub-space:   570 roots to seek:    12 dimension of matrix:          190
 Iteration     1 Dimension    12 NMult     0 NNew     12
 CISAX will form    12 AO SS matrices at one time.
 NMat=    12 NSing=     0 JSym2X=-1.
 New state      3 was old state      4
 Excitation Energies [eV] at current iteration:
 Root      1 :     5.846117294251001
 Root      2 :     5.917398938104893
 Root      3 :     8.258282897277356
 Root      4 :     8.921293158017699
 Root      5 :     8.921293227099184
 Root      6 :     9.901345102423061
 Root      7 :    11.560979452311710
 Root      8 :    11.566955183431710
 Root      9 :    13.963447872845300
 Root     10 :    17.112401877381900
 Root     11 :    17.117143962311830
 Root     12 :    18.160154591254080
 Iteration     2 Dimension    18 NMult    12 NNew      6
 CISAX will form     6 AO SS matrices at one time.
 NMat=     6 NSing=     0 JSym2X=-1.
 Root      1 not converged, maximum delta is    0.018812348533627
 Root      2 not converged, maximum delta is    0.066883051165133
 Root      3 not converged, maximum delta is    0.048176666423449
 Excitation Energies [eV] at current iteration:
 Root      1 :     5.820923293039456   Change is   -0.025194001211545
 Root      2 :     5.821030878029867   Change is   -0.096368060075026
 Root      3 :     8.006004218338227   Change is   -0.252278678939129
 Iteration     3 Dimension    24 NMult    18 NNew      6
 CISAX will form     6 AO SS matrices at one time.
 NMat=     6 NSing=     0 JSym2X=-1.
 Root      1 not converged, maximum delta is    0.000936602736261
 Root      2 not converged, maximum delta is    0.000805905157789
 Root      3 not converged, maximum delta is    0.004981549519739
 Excitation Energies [eV] at current iteration:
 Root      1 :     5.820754059921355   Change is   -0.000169233118101
 Root      2 :     5.820754477112198   Change is   -0.000276400917670
 Root      3 :     8.002786789912932   Change is   -0.003217428425294
 Iteration     4 Dimension    30 NMult    24 NNew      6
 CISAX will form     6 AO SS matrices at one time.
 NMat=     6 NSing=     0 JSym2X=-1.
 New state      1 was old state      2
 Root      1 not converged, maximum delta is    0.000094801699493
 New state      2 was old state      1
 Root      2 not converged, maximum delta is    0.000093256487099
 Root      3 not converged, maximum delta is    0.000653130450772
 Excitation Energies [eV] at current iteration:
 Root      1 :     5.820752473799412   Change is   -0.000002003312786
 Root      2 :     5.820752476929306   Change is   -0.000001582992050
 Root      3 :     8.002714873712241   Change is   -0.000071916200691
 Iteration     5 Dimension    36 NMult    30 NNew      6
 CISAX will form     6 AO SS matrices at one time.
 NMat=     6 NSing=     0 JSym2X=-1.
 New state      1 was old state      2
 Root      1 not converged, maximum delta is    0.000011744532531
 New state      2 was old state      1
 Root      2 not converged, maximum delta is    0.000011744532452
 Root      3 not converged, maximum delta is    0.000076114298802
 Excitation Energies [eV] at current iteration:
 Root      1 :     5.820752459910834   Change is   -0.000000017018471
 Root      2 :     5.820752459988018   Change is   -0.000000013811393
 Root      3 :     8.002712922341219   Change is   -0.000001951371022
 Iteration     6 Dimension    42 NMult    36 NNew      6
 CISAX will form     6 AO SS matrices at one time.
 NMat=     6 NSing=     0 JSym2X=-1.
 Root      1 not converged, maximum delta is    0.280729938223656
 Root      2 not converged, maximum delta is    0.280729938145607
 Root      3 not converged, maximum delta is    0.000012093140772
 Excitation Energies [eV] at current iteration:
 Root      1 :     5.820752459820588   Change is   -0.000000000090247
 Root      2 :     5.820752459820884   Change is   -0.000000000167134
 Root      3 :     8.002712867092139   Change is   -0.000000055249080
 Iteration     7 Dimension    48 NMult    42 NNew      6
 CISAX will form     6 AO SS matrices at one time.
 NMat=     6 NSing=     0 JSym2X=-1.
 Root      1 not converged, maximum delta is    0.057450006014716
 Root      2 not converged, maximum delta is    0.057450005932495
 Root      3 not converged, maximum delta is    0.000001383816385
 Excitation Energies [eV] at current iteration:
 Root      1 :     5.820752459820023   Change is   -0.000000000000565
 Root      2 :     5.820752459820107   Change is   -0.000000000000777
 Root      3 :     8.002712866502078   Change is   -0.000000000590060
 Iteration     8 Dimension    50 NMult    48 NNew      2
 CISAX will form     2 AO SS matrices at one time.
 NMat=     2 NSing=     0 JSym2X=-1.
 New state      1 was old state      2
 Root      1 not converged, maximum delta is    0.308559895977501
 New state      2 was old state      1
 Root      2 not converged, maximum delta is    0.308559895971654
 Root      3 has converged.
 Excitation Energies [eV] at current iteration:
 Root      1 :     5.820752459820094   Change is   -0.000000000000014
 Root      2 :     5.820752459820136   Change is    0.000000000000113
 Root      3 :     8.002712866492597   Change is   -0.000000000009482
 Convergence achieved on expansion vectors.
 ***********************************************************************
 Excited states from <AA,BB:AA,BB> singles matrix:
 ***********************************************************************
 
 1PDM for each excited state written to RWF  633
 Ground to excited state transition densities written to RWF  633
 Ground to excited state transition electric dipole moments (Au):
       state          X           Y           Z        Dip. S.      Osc.
         1         0.0000      0.0000     -0.0000      0.0000      0.0000
         2         0.0000      0.0000      0.0000      0.0000      0.0000
         3         0.0000     -0.0000      0.0000      0.0000      0.0000
 Ground to excited state transition velocity dipole moments (Au):
       state          X           Y           Z        Dip. S.      Osc.
         1         0.0000     -0.0000     -0.0000      0.0000      0.0000
         2        -0.0000     -0.0000     -0.0000      0.0000      0.0000
         3        -0.0000     -0.0000     -0.0000      0.0000      0.0000
 Ground to excited state transition magnetic dipole moments (Au):
       state          X           Y           Z
         1         0.0000     -0.0000      0.0000
         2         0.0000     -0.0000      0.0000
         3         0.0000      0.0000     -0.0000
 Ground to excited state transition velocity quadrupole moments (Au):
       state          XX          YY          ZZ          XY          XZ          YZ
         1        -0.0000     -0.0000     -0.0000     -0.0000     -0.0000      0.0000
         2         0.0000      0.0000      0.0000      0.0000      0.0000      0.0000
         3        -0.0000     -0.0000     -0.0000     -0.0000     -0.0000      0.0000
 <0|del|b> * <b|rxdel|0> + <0|del|b> * <b|delr+rdel|0>
 Rotatory Strengths (R) in cgs (10**-40 erg-esu-cm/Gauss)
       state          XX          YY          ZZ    R(velocity)    E-M Angle
         1         0.0000      0.0000      0.0000      0.0000       90.00
         2         0.0000     -0.0000      0.0000     -0.0000       90.00
         3        -0.0000     -0.0000      0.0000     -0.0000       90.00
 1/2[<0|r|b>*<b|rxdel|0> + (<0|rxdel|b>*<b|r|0>)*]
 Rotatory Strengths (R) in cgs (10**-40 erg-esu-cm/Gauss)
       state          XX          YY          ZZ     R(length)
         1        -0.0000      0.0000      0.0000      0.0000
         2        -0.0000      0.0000     -0.0000     -0.0000
         3        -0.0000      0.0000      0.0000      0.0000
  1/2[<0|del|b>*<b|r|0> + (<0|r|b>*<b|del|0>)*] (Au)
       state          X           Y           Z        Dip. S.   Osc.(frdel)
         1         0.0000     -0.0000      0.0000     -0.0000     -0.0000
         2        -0.0000     -0.0000     -0.0000      0.0000      0.0000
         3        -0.0000      0.0000     -0.0000      0.0000      0.0000

 Excitation energies and oscillator strengths:
 
 Excited state symmetry could not be determined.
 Excited State   1:      Triplet-?Sym    5.8208 eV  213.00 nm  f=0.0000  <S**2>=2.000
       7 ->  8         0.48630
       7 ->  9         0.51425
 This state for optimization and/or second-order correction.
 Total Energy, E(TD-HF/TD-DFT) =  -113.081746121    
 Copying the excited state density for this state as the 1-particle RhoCI density.
 
 Excited state symmetry could not be determined.
 Excited State   2:      Triplet-?Sym    5.8208 eV  213.00 nm  f=0.0000  <S**2>=2.000
       7 ->  8         0.51425
       7 ->  9        -0.48630
 
 Excited state symmetry could not be determined.
 Excited State   3:      Triplet-?Sym    8.0027 eV  154.93 nm  f=0.0000  <S**2>=2.000
       5 ->  8         0.50216
       6 ->  9         0.50216
 SavETr:  write IOETrn=   770 NScale= 10 NData=  16 NLR=1 NState=    3 LETran=      64.
 The selected state is a triplet.
 CISGrd: IGrad=2 NXY=2 DFT=T
 CISAX will form     1 AO SS matrices at one time.
 Spin AA IR=    1 I=   7 J=   5 Mu=   10 Nu=   12 IOp=3 MuP=    10 NuP=    12
 Err= 3.16D-01 FactIJ=-1.0 Fact=-1.0
 A= 1.5806714971D-01 AP=-1.5806714971D-01 B=-1.5806714971D-01 BP= 1.5806714971D-01
 NMat=     1 NSing=     0 JSym2X= 2.
 Leave Link  914 at Mon Jun 12 20:09:56 2023, MaxMem=   104857600 cpu:               4.4 elap:               4.4
 (Enter /home/linux-pohl-v2/Escritorio/Gaussian/g16/l1002.exe)
 Minotr:  Closed shell wavefunction.
          Computing CIS/TDA/TD derivatives.
          Using Z-Vector for PSCF gradient.
          Skipping F1 and S1 gradient terms here.
          IDoAtm=11
          Frozen-core window.
          Direct CPHF calculation.
          Differentiating once with respect to electric field.
                with respect to dipole field.
          Differentiating once with respect to nuclear coordinates.
          Requested convergence is 1.0D-10 RMS, and 1.0D-09 maximum.
          NewPWx=F KeepS1=T KeepF1=T KeepIn=T MapXYZ=F SortEE=F KeepMc=T.
 Keep R1 ints in memory in symmetry-blocked form, NReq=928692.
 FoFCou: FMM=F IPFlag=           0 FMFlag=           0 FMFlg1=           0
         NFxFlg=           0 DoJE=F BraDBF=F KetDBF=F FulRan=T
         wScrn=  0.000000 ICntrl=       600 IOpCl=  0 I1Cent=           0 NGrid=           0
         NMat0=    1 NMatS0=    351 NMatT0=    0 NMatD0=    1 NMtDS0=    0 NMtDT0=    0
 Petite list used in FoFCou.
 Two-electron integral symmetry used by symmetrizing perturbed Fock matrices.
          MDV=     104857600 using IRadAn=       5.
          Solving linear equations separately, MaxMat=       0.
          There are     1 degrees of freedom in the 1st order CPHF.  IDoFFX=0 NUNeed=     1.
 IMat=     1 ErrA=  5.18D-01  1.70D+00  1.70D+00  1.70D+00
 LinEq1:  Iter=  0 NonCon=     1 RMS=6.57D-02 Max=4.71D-01 NDo=     1
 AX will form     1 AO Fock derivatives at one time.
 IMat=     1 ErrA=  3.62D-02  1.52D+00  1.52D+00  1.52D+00
 LinEq1:  Iter=  1 NonCon=     1 RMS=4.10D-02 Max=2.71D-01 NDo=     1
 IMat=     1 ErrA=  8.98D-02  1.92D+00  1.92D+00  1.92D+00
 LinEq1:  Iter=  2 NonCon=     1 RMS=8.39D-03 Max=4.15D-02 NDo=     1
 IMat=     1 ErrA=  1.98D-02  2.57D-01  2.57D-01  2.57D-01
 LinEq1:  Iter=  3 NonCon=     1 RMS=2.56D-03 Max=1.15D-02 NDo=     1
 IMat=     1 ErrA=  4.82D-03  4.89D-02  4.89D-02  4.89D-02
 LinEq1:  Iter=  4 NonCon=     1 RMS=1.87D-04 Max=1.23D-03 NDo=     1
 IMat=     1 ErrA=  3.39D-04  5.13D-03  5.13D-03  5.13D-03
 LinEq1:  Iter=  5 NonCon=     1 RMS=1.27D-05 Max=5.96D-05 NDo=     1
 IMat=     1 ErrA=  3.08D-05  1.63D-04  1.63D-04  1.63D-04
 LinEq1:  Iter=  6 NonCon=     1 RMS=7.07D-07 Max=4.16D-06 NDo=     1
 IMat=     1 ErrA=  1.90D-06  1.04D-05  1.04D-05  1.04D-05
 LinEq1:  Iter=  7 NonCon=     1 RMS=5.21D-08 Max=3.09D-07 NDo=     1
 IMat=     1 ErrA=  1.45D-07  8.28D-07  8.28D-07  8.28D-07
 LinEq1:  Iter=  8 NonCon=     1 RMS=2.11D-09 Max=9.14D-09 NDo=     1
 IMat=     1 ErrA=  1.01D-08  3.41D-08  3.41D-08  3.41D-08
 LinEq1:  Iter=  9 NonCon=     0 RMS=6.26D-11 Max=2.38D-10 NDo=     1
 Linear equations converged to 1.000D-10 1.000D-09 after     9 iterations.
 End of Minotr F.D. properties file   721 does not exist.
 End of Minotr F.D. properties file   722 does not exist.
 End of Minotr F.D. properties file   788 does not exist.
 Leave Link 1002 at Mon Jun 12 20:09:58 2023, MaxMem=   104857600 cpu:               1.5 elap:               1.5
 (Enter /home/linux-pohl-v2/Escritorio/Gaussian/g16/l601.exe)
 Copying SCF densities to generalized density rwf, IOpCl= 0 IROHF=0.

 **********************************************************************

            Population analysis using the SCF Density.

 **********************************************************************

 Orbital symmetries:
       Occupied  (SG) (SG) (SG) (SG) (PI) (PI) (SG)
       Virtual   (PI) (PI) (SG) (PI) (PI) (SG) (SG) (SG) (PI) (PI)
                 (SG) (PI) (PI) (SG) (PI) (PI) (SG) (SG) (SG)
 The electronic state is 1-SG.
 Alpha  occ. eigenvalues --  -19.24664 -10.30835  -1.21679  -0.57580  -0.49333
 Alpha  occ. eigenvalues --   -0.49333  -0.38228
 Alpha virt. eigenvalues --   -0.03969  -0.03969   0.21237   0.38042   0.38042
 Alpha virt. eigenvalues --    0.43236   0.65540   0.77808   0.78994   0.78994
 Alpha virt. eigenvalues --    1.30753   2.52115   2.52115   2.61721   4.69686
 Alpha virt. eigenvalues --    4.69686   4.84461  23.20559  49.68049
          Condensed to atoms (all electrons):
               1          2
     1  C    5.477701   0.349942
     2  O    0.349942   7.822414
 Mulliken charges:
               1
     1  C    0.172356
     2  O   -0.172356
 Sum of Mulliken charges =  -0.00000
 Mulliken charges with hydrogens summed into heavy atoms:
               1
     1  C    0.172356
     2  O   -0.172356
 Electronic spatial extent (au):  <R**2>=             40.0431
 Charge=             -0.0000 electrons
 Dipole moment (field-independent basis, Debye):
    X=             -0.0000    Y=             -0.0000    Z=             -0.0061  Tot=              0.0061
 Quadrupole moment (field-independent basis, Debye-Ang):
   XX=            -10.1193   YY=            -10.1193   ZZ=            -12.8265
   XY=             -0.0000   XZ=             -0.0000   YZ=             -0.0000
 Traceless Quadrupole moment (field-independent basis, Debye-Ang):
   XX=              0.9024   YY=              0.9024   ZZ=             -1.8048
   XY=             -0.0000   XZ=             -0.0000   YZ=             -0.0000
 Octapole moment (field-independent basis, Debye-Ang**2):
  XXX=              0.0000  YYY=              0.0000  ZZZ=              6.0260  XYY=              0.0000
  XXY=              0.0000  XXZ=              1.2093  XZZ=              0.0000  YZZ=              0.0000
  YYZ=              1.2093  XYZ=             -0.0000
 Hexadecapole moment (field-independent basis, Debye-Ang**3):
 XXXX=             -8.6584 YYYY=             -8.6584 ZZZZ=            -35.8058 XXXY=             -0.0000
 XXXZ=             -0.0000 YYYX=             -0.0000 YYYZ=             -0.0000 ZZZX=             -0.0000
 ZZZY=             -0.0000 XXYY=             -2.8861 XXZZ=             -6.9372 YYZZ=             -6.9372
 XXYZ=             -0.0000 YYXZ=             -0.0000 ZZXY=             -0.0000
 N-N= 2.260444586546D+01 E-N=-3.114253970174D+02  KE= 1.131488869291D+02
 Symmetry A1   KE= 1.048866791113D+02
 Symmetry A2   KE= 0.000000000000D+00
 Symmetry B1   KE= 4.131103908870D+00
 Symmetry B2   KE= 4.131103908870D+00
 No NMR shielding tensors so no spin-rotation constants.
 Leave Link  601 at Mon Jun 12 20:09:58 2023, MaxMem=   104857600 cpu:               0.0 elap:               0.1
 (Enter /home/linux-pohl-v2/Escritorio/Gaussian/g16/l701.exe)
 ... and contract with generalized density number  6.
 Compute integral first derivatives.
 Density matrix is not symmetric, so symmetry will not be used here.
 Leave Link  701 at Mon Jun 12 20:09:58 2023, MaxMem=   104857600 cpu:               0.1 elap:               0.1
 (Enter /home/linux-pohl-v2/Escritorio/Gaussian/g16/l702.exe)
 L702 exits ... SP integral derivatives will be done elsewhere.
 Leave Link  702 at Mon Jun 12 20:09:58 2023, MaxMem=   104857600 cpu:               0.0 elap:               0.0
 (Enter /home/linux-pohl-v2/Escritorio/Gaussian/g16/l703.exe)
 Integral derivatives from FoFJK, PRISM(SPDF).
 Compute integral first derivatives, UseDBF=F ICtDFT=           0.
 Density matrix is not symmetric, so symmetry will not be used here.
 Calling FoFJK, ICntrl=  10005127 FMM=F ISym2X=0 I1Cent= 0 IOpClX= 0 NMat=1 NMatS=1 NMatT=0.
 FoFJK:  IHMeth= 1 ICntrl=10005127 DoSepK=F KAlg= 0 I1Cent=           0 FoldK=F
 IRaf=         0 NMat=       1 IRICut=       1 DoRegI=T DoRafI=F ISym2E= 0 IDoP0=0 IntGTp=1.
 FoFCou: FMM=F IPFlag=           0 FMFlag=      100000 FMFlg1=         800
         NFxFlg=           0 DoJE=F BraDBF=F KetDBF=F FulRan=T
         wScrn=  0.000000 ICntrl=  10005127 IOpCl=  0 I1Cent=           0 NGrid=           0
         NMat0=    1 NMatS0=      1 NMatT0=    0 NMatD0=    1 NMtDS0=    0 NMtDT0=    0
 Symmetry not used in FoFCou.
 Leave Link  703 at Mon Jun 12 20:09:58 2023, MaxMem=   104857600 cpu:               0.3 elap:               0.3
 (Enter /home/linux-pohl-v2/Escritorio/Gaussian/g16/l716.exe)
 Dipole        =-7.83932121D-16-7.06823852D-16-6.12707809D-01
 ***** Axes restored to original set *****
 -------------------------------------------------------------------
 Center     Atomic                   Forces (Hartrees/Bohr)
 Number     Number              X              Y              Z
 -------------------------------------------------------------------
      1        6          -0.221152897    0.002233880   -0.009037580
      2        8           0.221152897   -0.002233880    0.009037580
 -------------------------------------------------------------------
 Cartesian Forces:  Max     0.221152897 RMS     0.127795764
 Leave Link  716 at Mon Jun 12 20:09:58 2023, MaxMem=   104857600 cpu:               0.0 elap:               0.0
 (Enter /home/linux-pohl-v2/Escritorio/Gaussian/g16/l103.exe)

 GradGradGradGradGradGradGradGradGradGradGradGradGradGradGradGradGradGrad
 Berny optimization.
 FormGI is forming the generalized inverse of G from B-inverse, IUseBI=4.
 Internal  Forces:  Max     0.221348756 RMS     0.221348756
 Search for a local minimum.
 Step number   1 out of a maximum of   20
 All quantities printed in internal units (Hartrees-Bohrs-Radians)
 RMS Force = .22135D+00 SwitMx=.10000D-02 MixMth= 1
 Mixed Optimization -- RFO/linear search
 Second derivative matrix not updated -- first step.
 The second derivative matrix:
                          R1
           R1           1.54832
 ITU=  0
     Eigenvalues ---    1.54832
 RFO step:  Lambda=-3.10226507D-02 EMin= 1.54831601D+00
 Linear search not attempted -- first point.
 Iteration  1 RMS(Cart)=  0.09910300 RMS(Int)=  0.00000000
 Iteration  2 RMS(Cart)=  0.00000000 RMS(Int)=  0.00000000
 ITry= 1 IFail=0 DXMaxC= 7.00D-02 DCOld= 1.00D+10 DXMaxT= 3.00D-01 DXLimC= 3.00D+00 Rises=F
 Variable       Old X    -DE/DX   Delta X   Delta X   Delta X     New X
                                 (Linear)    (Quad)   (Total)
    R1        2.12348   0.22135   0.00000   0.14015   0.14015   2.26363
         Item               Value     Threshold  Converged?
 Maximum Force            0.221349     0.000450     NO 
 RMS     Force            0.221349     0.000300     NO 
 Maximum Displacement     0.070014     0.001800     NO 
 RMS     Displacement     0.099103     0.001200     NO 
 Predicted change in Energy=-1.581601D-02
 Lowest energy point so far.  Saving SCF results.
 GradGradGradGradGradGradGradGradGradGradGradGradGradGradGradGradGradGrad

 Leave Link  103 at Mon Jun 12 20:09:58 2023, MaxMem=   104857600 cpu:               0.0 elap:               0.0
 (Enter /home/linux-pohl-v2/Escritorio/Gaussian/g16/l202.exe)
                          Input orientation:                          
 ---------------------------------------------------------------------
 Center     Atomic      Atomic             Coordinates (Angstroms)
 Number     Number       Type             X           Y           Z
 ---------------------------------------------------------------------
      1          6           0       -2.264075    0.499577  -11.847747
      2          8           0       -1.067274    0.487489  -11.798838
 ---------------------------------------------------------------------
 Stoichiometry    CO
 Framework group  C*V[C*(CO)]
 Deg. of freedom     1
 Full point group                 C*V     NOp   4
 RotChk:  IX=0 Diff= 1.08D-15
 Largest Abelian subgroup         C2V     NOp   4
 Largest concise Abelian subgroup C1      NOp   1
                         Standard orientation:                         
 ---------------------------------------------------------------------
 Center     Atomic      Atomic             Coordinates (Angstroms)
 Number     Number       Type             X           Y           Z
 ---------------------------------------------------------------------
      1          6           0       -0.000000    0.000000   -0.684492
      2          8           0        0.000000   -0.000000    0.513369
 ---------------------------------------------------------------------
 Rotational constants (GHZ):           0.0000000          51.3712878          51.3712878
 Leave Link  202 at Mon Jun 12 20:09:58 2023, MaxMem=   104857600 cpu:               0.0 elap:               0.0
 (Enter /home/linux-pohl-v2/Escritorio/Gaussian/g16/l301.exe)
 Standard basis: 6-311G (5D, 7F)
 Ernie: Thresh=  0.10000D-02 Tol=  0.10000D-05 Strict=F.
 There are    14 symmetry adapted cartesian basis functions of A1  symmetry.
 There are     0 symmetry adapted cartesian basis functions of A2  symmetry.
 There are     6 symmetry adapted cartesian basis functions of B1  symmetry.
 There are     6 symmetry adapted cartesian basis functions of B2  symmetry.
 There are    14 symmetry adapted basis functions of A1  symmetry.
 There are     0 symmetry adapted basis functions of A2  symmetry.
 There are     6 symmetry adapted basis functions of B1  symmetry.
 There are     6 symmetry adapted basis functions of B2  symmetry.
    26 basis functions,    52 primitive gaussians,    26 cartesian basis functions
     7 alpha electrons        7 beta electrons
       nuclear repulsion energy        21.2048893035 Hartrees.
 IExCor=  402 DFT=T Ex+Corr=B3LYP ExCW=0 ScaHFX=  0.200000
 ScaDFX=  0.800000  0.720000  1.000000  0.810000 ScalE2=  1.000000  1.000000
 IRadAn=      5 IRanWt=     -1 IRanGd=            0 ICorTp=0 IEmpDi=  4
 NAtoms=    2 NActive=    2 NUniq=    2 SFac= 1.00D+00 NAtFMM=   60 NAOKFM=F Big=F
 Integral buffers will be    131072 words long.
 Regular integral format.
 Two-electron integral symmetry is turned on.
 Leave Link  301 at Mon Jun 12 20:09:58 2023, MaxMem=   104857600 cpu:               0.0 elap:               0.0
 (Enter /home/linux-pohl-v2/Escritorio/Gaussian/g16/l302.exe)
 NPDir=0 NMtPBC=     1 NCelOv=     1 NCel=       1 NClECP=     1 NCelD=      1
         NCelK=      1 NCelE2=     1 NClLst=     1 CellRange=     0.0.
 One-electron integrals computed using PRISM.
 One-electron integral symmetry used in STVInt
 NBasis=    26 RedAO= T EigKep=  2.54D-02  NBF=    14     0     6     6
 NBsUse=    26 1.00D-06 EigRej= -1.00D+00 NBFU=    14     0     6     6
 Precomputing XC quadrature grid using
 IXCGrd= 4 IRadAn=           5 IRanWt=          -1 IRanGd=           0 AccXCQ= 0.00D+00.
 Generated NRdTot=       0 NPtTot=           0 NUsed=           0 NTot=          32
 NSgBfM=    26    26    26    26    26 MxSgAt=     2 MxSgA2=     2.
 Leave Link  302 at Mon Jun 12 20:09:58 2023, MaxMem=   104857600 cpu:               0.1 elap:               0.1
 (Enter /home/linux-pohl-v2/Escritorio/Gaussian/g16/l303.exe)
 DipDrv:  MaxL=1.
 Leave Link  303 at Mon Jun 12 20:09:58 2023, MaxMem=   104857600 cpu:               0.0 elap:               0.0
 (Enter /home/linux-pohl-v2/Escritorio/Gaussian/g16/l308.exe)
 Leave Link  308 at Mon Jun 12 20:09:58 2023, MaxMem=   104857600 cpu:               0.0 elap:               0.0
 (Enter /home/linux-pohl-v2/Escritorio/Gaussian/g16/l401.exe)
 Initial guess from the checkpoint file:  "/tmp/Gau-34275.chk"
 B after Tr=     0.000000    0.000000    0.000000
         Rot=    1.000000    0.000000    0.000000    0.000000 Ang=   0.00 deg.
 Guess basis will be translated and rotated to current coordinates.
 JPrj=2 DoOrth=T DoCkMO=T.
 Initial guess orbital symmetries:
       Occupied  (SG) (SG) (SG) (SG) (PI) (PI) (SG)
       Virtual   (PI) (PI) (SG) (PI) (PI) (SG) (SG) (SG) (PI) (PI)
                 (SG) (PI) (PI) (SG) (PI) (PI) (SG) (SG) (SG)
 The electronic state of the initial guess is 1-SG.
 Generating alternative initial guess.
 ExpMin= 1.46D-01 ExpMax= 8.59D+03 ExpMxC= 1.30D+03 IAcc=3 IRadAn=         5 AccDes= 0.00D+00
 Harris functional with IExCor=  402 and IRadAn=       5 diagonalized for initial guess.
 HarFok:  IExCor=  402 AccDes= 0.00D+00 IRadAn=         5 IDoV= 1 UseB2=F ITyADJ=14
 ICtDFT=  3500011 ScaDFX=  1.000000  1.000000  1.000000  1.000000
 FoFCou: FMM=F IPFlag=           0 FMFlag=      100000 FMFlg1=           0
         NFxFlg=           0 DoJE=T BraDBF=F KetDBF=T FulRan=T
         wScrn=  0.000000 ICntrl=       500 IOpCl=  0 I1Cent=   200000004 NGrid=           0
         NMat0=    1 NMatS0=      1 NMatT0=    0 NMatD0=    1 NMtDS0=    0 NMtDT0=    0
 Petite list used in FoFCou.
 Harris En= -113.295975886517    
 Leave Link  401 at Mon Jun 12 20:09:59 2023, MaxMem=   104857600 cpu:               0.1 elap:               0.1
 (Enter /home/linux-pohl-v2/Escritorio/Gaussian/g16/l502.exe)
 Keep R1 ints in memory in symmetry-blocked form, NReq=927177.
 FoFCou: FMM=F IPFlag=           0 FMFlag=           0 FMFlg1=           0
         NFxFlg=           0 DoJE=F BraDBF=F KetDBF=F FulRan=T
         wScrn=  0.000000 ICntrl=       600 IOpCl=  0 I1Cent=           0 NGrid=           0
         NMat0=    1 NMatS0=    351 NMatT0=    0 NMatD0=    1 NMtDS0=    0 NMtDT0=    0
 Petite list used in FoFCou.
 Closed shell SCF:
 Using DIIS extrapolation, IDIIS=  1040.
 NGot=   104857600 LenX=   104835198 LenY=   104834081
 Requested convergence on RMS density matrix=1.00D-08 within 128 cycles.
 Requested convergence on MAX density matrix=1.00D-06.
 Requested convergence on             energy=1.00D-06.
 No special actions if energy rises.
 Integral accuracy reduced to 1.0D-05 until final iterations.

 Cycle   1  Pass 0  IDiag  1:
 E= -113.287725816060    
 DIIS: error= 1.61D-02 at cycle   1 NSaved=   1.
 NSaved= 1 IEnMin= 1 EnMin= -113.287725816060     IErMin= 1 ErrMin= 1.61D-02
 ErrMax= 1.61D-02  0.00D+00 EMaxC= 1.00D-01 BMatC= 5.97D-03 BMatP= 5.97D-03
 IDIUse=3 WtCom= 8.39D-01 WtEn= 1.61D-01
 Coeff-Com:  0.100D+01
 Coeff-En:   0.100D+01
 Coeff:      0.100D+01
 Recover alternate guess density for next cycle.
 RMSDP=5.53D-03 MaxDP=6.57D-02              OVMax= 0.00D+00

 Cycle   2  Pass 0  IDiag  1:
 E= -113.261894473465     Delta-E=        0.025831342596 Rises=F Damp=F
 Switch densities from cycles 1 and 2 for lowest energy.
 DIIS: error= 4.82D-02 at cycle   2 NSaved=   2.
 NSaved= 2 IEnMin= 1 EnMin= -113.287725816060     IErMin= 1 ErrMin= 1.61D-02
 ErrMax= 4.82D-02  0.00D+00 EMaxC= 1.00D+00 BMatC= 4.97D-02 BMatP= 5.97D-03
 IDIUse=1 WtCom= 1.00D+00 WtEn= 0.00D+00
 Coeff-Com:  0.106D+01-0.557D-01
 Coeff:      0.106D+01-0.557D-01
 Gap=     0.322 Goal=   None    Shift=    0.000
 RMSDP=2.75D-03 MaxDP=1.57D-02 DE= 2.58D-02 OVMax= 2.37D-02

 Cycle   3  Pass 0  IDiag  1:
 E= -113.291298644492     Delta-E=       -0.029404171028 Rises=F Damp=F
 DIIS: error= 7.60D-03 at cycle   3 NSaved=   3.
 NSaved= 3 IEnMin= 3 EnMin= -113.291298644492     IErMin= 3 ErrMin= 7.60D-03
 ErrMax= 7.60D-03  0.00D+00 EMaxC= 1.00D+00 BMatC= 1.57D-03 BMatP= 5.97D-03
 IDIUse=1 WtCom= 1.00D+00 WtEn= 0.00D+00
 Coeff-Com:  0.989D-01 0.111D+00 0.790D+00
 Coeff:      0.989D-01 0.111D+00 0.790D+00
 Gap=     0.320 Goal=   None    Shift=    0.000
 RMSDP=1.20D-03 MaxDP=1.63D-02 DE=-2.94D-02 OVMax= 9.48D-03

 Cycle   4  Pass 0  IDiag  1:
 E= -113.292293316478     Delta-E=       -0.000994671985 Rises=F Damp=F
 DIIS: error= 1.18D-03 at cycle   4 NSaved=   4.
 NSaved= 4 IEnMin= 4 EnMin= -113.292293316478     IErMin= 4 ErrMin= 1.18D-03
 ErrMax= 1.18D-03  0.00D+00 EMaxC= 1.00D+00 BMatC= 3.16D-05 BMatP= 1.57D-03
 IDIUse=1 WtCom= 1.00D+00 WtEn= 0.00D+00
 Coeff-Com: -0.199D-01 0.272D-01 0.178D+00 0.814D+00
 Coeff:     -0.199D-01 0.272D-01 0.178D+00 0.814D+00
 Gap=     0.320 Goal=   None    Shift=    0.000
 RMSDP=2.70D-04 MaxDP=3.82D-03 DE=-9.95D-04 OVMax= 2.33D-03

 Cycle   5  Pass 0  IDiag  1:
 E= -113.292313028491     Delta-E=       -0.000019712014 Rises=F Damp=F
 DIIS: error= 9.06D-04 at cycle   5 NSaved=   5.
 NSaved= 5 IEnMin= 5 EnMin= -113.292313028491     IErMin= 5 ErrMin= 9.06D-04
 ErrMax= 9.06D-04  0.00D+00 EMaxC= 1.00D+00 BMatC= 1.23D-05 BMatP= 3.16D-05
 IDIUse=1 WtCom= 1.00D+00 WtEn= 0.00D+00
 Coeff-Com: -0.455D-02 0.111D-02 0.646D-01 0.335D+00 0.604D+00
 Coeff:     -0.455D-02 0.111D-02 0.646D-01 0.335D+00 0.604D+00
 Gap=     0.321 Goal=   None    Shift=    0.000
 RMSDP=8.30D-05 MaxDP=1.11D-03 DE=-1.97D-05 OVMax= 1.16D-03

 Cycle   6  Pass 0  IDiag  1:
 E= -113.292322797518     Delta-E=       -0.000009769027 Rises=F Damp=F
 DIIS: error= 6.48D-05 at cycle   6 NSaved=   6.
 NSaved= 6 IEnMin= 6 EnMin= -113.292322797518     IErMin= 6 ErrMin= 6.48D-05
 ErrMax= 6.48D-05  0.00D+00 EMaxC= 1.00D+00 BMatC= 5.88D-08 BMatP= 1.23D-05
 IDIUse=1 WtCom= 1.00D+00 WtEn= 0.00D+00
 Coeff-Com:  0.222D-04-0.213D-03-0.201D-02-0.205D-02 0.585D-01 0.946D+00
 Coeff:      0.222D-04-0.213D-03-0.201D-02-0.205D-02 0.585D-01 0.946D+00
 Gap=     0.321 Goal=   None    Shift=    0.000
 RMSDP=5.63D-06 MaxDP=5.33D-05 DE=-9.77D-06 OVMax= 8.83D-05

 Initial convergence to 1.0D-05 achieved.  Increase integral accuracy.
 Cycle   7  Pass 1  IDiag  1:
 E= -113.292319559575     Delta-E=        0.000003237943 Rises=F Damp=F
 DIIS: error= 5.50D-06 at cycle   1 NSaved=   1.
 NSaved= 1 IEnMin= 1 EnMin= -113.292319559575     IErMin= 1 ErrMin= 5.50D-06
 ErrMax= 5.50D-06  0.00D+00 EMaxC= 1.00D+00 BMatC= 4.94D-10 BMatP= 4.94D-10
 IDIUse=1 WtCom= 1.00D+00 WtEn= 0.00D+00
 Coeff-Com:  0.100D+01
 Coeff:      0.100D+01
 Gap=     0.321 Goal=   None    Shift=    0.000
 RMSDP=5.63D-06 MaxDP=5.33D-05 DE= 3.24D-06 OVMax= 2.49D-05

 Cycle   8  Pass 1  IDiag  1:
 E= -113.292319556992     Delta-E=        0.000000002583 Rises=F Damp=F
 DIIS: error= 1.62D-05 at cycle   2 NSaved=   2.
 NSaved= 2 IEnMin= 1 EnMin= -113.292319559575     IErMin= 1 ErrMin= 5.50D-06
 ErrMax= 1.62D-05  0.00D+00 EMaxC= 1.00D+00 BMatC= 4.06D-09 BMatP= 4.94D-10
 IDIUse=1 WtCom= 1.00D+00 WtEn= 0.00D+00
 Coeff-Com:  0.744D+00 0.256D+00
 Coeff:      0.744D+00 0.256D+00
 Gap=     0.321 Goal=   None    Shift=    0.000
 RMSDP=1.03D-06 MaxDP=9.23D-06 DE= 2.58D-09 OVMax= 1.84D-05

 Cycle   9  Pass 1  IDiag  1:
 E= -113.292319559964     Delta-E=       -0.000000002972 Rises=F Damp=F
 DIIS: error= 1.96D-07 at cycle   3 NSaved=   3.
 NSaved= 3 IEnMin= 3 EnMin= -113.292319559964     IErMin= 3 ErrMin= 1.96D-07
 ErrMax= 1.96D-07  0.00D+00 EMaxC= 1.00D+00 BMatC= 4.89D-13 BMatP= 4.94D-10
 IDIUse=1 WtCom= 1.00D+00 WtEn= 0.00D+00
 Coeff-Com:  0.199D-01-0.225D-02 0.982D+00
 Coeff:      0.199D-01-0.225D-02 0.982D+00
 Gap=     0.321 Goal=   None    Shift=    0.000
 RMSDP=3.53D-08 MaxDP=4.55D-07 DE=-2.97D-09 OVMax= 4.16D-07

 Cycle  10  Pass 1  IDiag  1:
 E= -113.292319559965     Delta-E=       -0.000000000000 Rises=F Damp=F
 DIIS: error= 8.59D-08 at cycle   4 NSaved=   4.
 NSaved= 4 IEnMin= 4 EnMin= -113.292319559965     IErMin= 4 ErrMin= 8.59D-08
 ErrMax= 8.59D-08  0.00D+00 EMaxC= 1.00D+00 BMatC= 1.21D-13 BMatP= 4.89D-13
 IDIUse=1 WtCom= 1.00D+00 WtEn= 0.00D+00
 Coeff-Com: -0.779D-02 0.668D-03 0.133D+00 0.874D+00
 Coeff:     -0.779D-02 0.668D-03 0.133D+00 0.874D+00
 Gap=     0.321 Goal=   None    Shift=    0.000
 RMSDP=1.05D-08 MaxDP=1.49D-07 DE=-3.13D-13 OVMax= 1.03D-07

 Cycle  11  Pass 1  IDiag  1:
 E= -113.292319559965     Delta-E=       -0.000000000000 Rises=F Damp=F
 DIIS: error= 7.71D-09 at cycle   5 NSaved=   5.
 NSaved= 5 IEnMin= 5 EnMin= -113.292319559965     IErMin= 5 ErrMin= 7.71D-09
 ErrMax= 7.71D-09  0.00D+00 EMaxC= 1.00D+00 BMatC= 1.35D-15 BMatP= 1.21D-13
 IDIUse=1 WtCom= 1.00D+00 WtEn= 0.00D+00
 Coeff-Com: -0.212D-02 0.806D-03-0.212D-02 0.252D+00 0.752D+00
 Coeff:     -0.212D-02 0.806D-03-0.212D-02 0.252D+00 0.752D+00
 Gap=     0.321 Goal=   None    Shift=    0.000
 RMSDP=1.38D-09 MaxDP=1.97D-08 DE=-2.27D-13 OVMax= 1.03D-08

 SCF Done:  E(RB3LYP) =  -113.292319560     A.U. after   11 cycles
            NFock= 11  Conv=0.14D-08     -V/T= 2.0041
 KE= 1.128343793211D+02 PE=-3.084752901476D+02 EE= 6.114370196313D+01
 Leave Link  502 at Mon Jun 12 20:09:59 2023, MaxMem=   104857600 cpu:               0.3 elap:               0.3
 (Enter /home/linux-pohl-v2/Escritorio/Gaussian/g16/l801.exe)
 DoSCS=F DFT=T ScalE2(SS,OS)=  1.000000  1.000000
 ExpMin= 1.46D-01 ExpMax= 8.59D+03 ExpMxC= 1.30D+03 IAcc=3 IRadAn=         5 AccDes= 0.00D+00
 HarFok:  IExCor=  205 AccDes= 0.00D+00 IRadAn=         5 IDoV=-2 UseB2=F ITyADJ=14
 ICtDFT= 12500011 ScaDFX=  1.000000  1.000000  1.000000  1.000000
 Largest valence mixing into a core orbital is  5.40D-05
 Largest core mixing into a valence orbital is  1.38D-05
 Range of M.O.s used for correlation:     3    26
 NBasis=    26 NAE=     7 NBE=     7 NFC=     2 NFV=     0
 NROrb=     24 NOA=     5 NOB=     5 NVA=    19 NVB=    19
 Leave Link  801 at Mon Jun 12 20:09:59 2023, MaxMem=   104857600 cpu:               0.1 elap:               0.1
 (Enter /home/linux-pohl-v2/Escritorio/Gaussian/g16/l914.exe)
 RHF ground state
 Keep R1, R2, and R3 ints in memory in symmetry-blocked form, NReq=944682.
 FoFCou: FMM=F IPFlag=           0 FMFlag=           0 FMFlg1=           0
         NFxFlg=           0 DoJE=F BraDBF=F KetDBF=F FulRan=T
         wScrn=  0.000000 ICntrl=       600 IOpCl=  0 I1Cent=           0 NGrid=           0
         NMat0=    1 NMatS0=    351 NMatT0=    0 NMatD0=    1 NMtDS0=    0 NMtDT0=    0
 Petite list used in FoFCou.
 MDV=   104857600 DFT=T DoStab=F Mixed=T DoRPA=T DoScal=F NonHer=T
 Making orbital integer symmetry assigments:
 Orbital symmetries:
       Occupied  (SG) (SG) (SG) (SG) (PI) (PI) (SG)
       Virtual   (PI) (PI) (SG) (PI) (PI) (SG) (SG) (SG) (PI) (PI)
                 (SG) (PI) (PI) (SG) (PI) (PI) (SG) (SG) (SG)
 Generating guess from densities on rwf.
 Convergence on wavefunction:    0.000001000000000
 Davidson Disk Diagonalization:  ConvIn= 1.00D-06 SkipCon=T Conv= 1.00D-06.
 Max sub-space:   570 roots to seek:     3 dimension of matrix:          190
 Iteration     1 Dimension     6 NMult     0 NNew      6
 CISAX will form     6 AO SS matrices at one time.
 Spin AA IR=    5 I=   6 J=   2 Mu=    6 Nu=    7 IOp=3 MuP=     6 NuP=    -7
 Err= 3.54D-01 FactIJ= 1.0 Fact=-1.0
 A= 1.7707703933D-01 AP=-1.7707703933D-01 B=-1.7707703933D-01 BP= 1.7707703933D-01
 NMat=     6 NSing=     0 JSym2X= 2.
 New state      1 was old state      2
 New state      2 was old state      1
 Excitation Energies [eV] at current iteration:
 Root      1 :     5.269914770986790
 Root      2 :     5.269914776024883
 Root      3 :     6.603910853982374
 Iteration     2 Dimension    12 NMult     6 NNew      6
 CISAX will form     6 AO SS matrices at one time.
 NMat=     6 NSing=     0 JSym2X=-1.
 Root      1 not converged, maximum delta is    0.048269260488387
 Root      2 not converged, maximum delta is    0.048269260017227
 Root      3 not converged, maximum delta is    0.006063106226714
 Excitation Energies [eV] at current iteration:
 Root      1 :     5.224714306201165   Change is   -0.045200464785626
 Root      2 :     5.224714306842024   Change is   -0.045200469182858
 Root      3 :     6.597940974646147   Change is   -0.005969879336227
 Iteration     3 Dimension    18 NMult    12 NNew      6
 CISAX will form     6 AO SS matrices at one time.
 NMat=     6 NSing=     0 JSym2X=-1.
 New state      1 was old state      2
 Root      1 not converged, maximum delta is    0.005429344744644
 New state      2 was old state      1
 Root      2 not converged, maximum delta is    0.005429343191979
 Root      3 not converged, maximum delta is    0.000773611470310
 Excitation Energies [eV] at current iteration:
 Root      1 :     5.223611451018809   Change is   -0.001102855823216
 Root      2 :     5.223611451020115   Change is   -0.001102855181049
 Root      3 :     6.597903053169846   Change is   -0.000037921476301
 Iteration     4 Dimension    24 NMult    18 NNew      6
 CISAX will form     6 AO SS matrices at one time.
 NMat=     6 NSing=     0 JSym2X=-1.
 New state      1 was old state      2
 Root      1 not converged, maximum delta is    0.067172455123817
 New state      2 was old state      1
 Root      2 not converged, maximum delta is    0.067172455123684
 Root      3 not converged, maximum delta is    0.000065203658310
 Excitation Energies [eV] at current iteration:
 Root      1 :     5.223606057688854   Change is   -0.000005393331261
 Root      2 :     5.223606057688949   Change is   -0.000005393329860
 Root      3 :     6.597902354275472   Change is   -0.000000698894374
 Iteration     5 Dimension    30 NMult    24 NNew      6
 CISAX will form     6 AO SS matrices at one time.
 NMat=     6 NSing=     0 JSym2X=-1.
 Root      1 not converged, maximum delta is    0.188255414792627
 Root      2 not converged, maximum delta is    0.188255414792503
 Root      3 not converged, maximum delta is    0.000004691673340
 Excitation Energies [eV] at current iteration:
 Root      1 :     5.223606034558252   Change is   -0.000000023130602
 Root      2 :     5.223606034558520   Change is   -0.000000023130429
 Root      3 :     6.597902345588071   Change is   -0.000000008687400
 Iteration     6 Dimension    36 NMult    30 NNew      6
 CISAX will form     6 AO SS matrices at one time.
 NMat=     6 NSing=     0 JSym2X=-1.
 New state      1 was old state      2
 Root      1 not converged, maximum delta is    0.454677131987052
 New state      2 was old state      1
 Root      2 not converged, maximum delta is    0.454677131987037
 Root      3 has converged.
 Excitation Energies [eV] at current iteration:
 Root      1 :     5.223606034366157   Change is   -0.000000000192362
 Root      2 :     5.223606034366283   Change is   -0.000000000191969
 Root      3 :     6.597902345460410   Change is   -0.000000000127661
 Iteration     7 Dimension    40 NMult    36 NNew      4
 CISAX will form     4 AO SS matrices at one time.
 NMat=     4 NSing=     0 JSym2X=-1.
 New state      1 was old state      2
 Root      1 not converged, maximum delta is    0.469267572706668
 New state      2 was old state      1
 Root      2 not converged, maximum delta is    0.469267572706688
 Root      3 has converged.
 Excitation Energies [eV] at current iteration:
 Root      1 :     5.223606034364615   Change is   -0.000000000001668
 Root      2 :     5.223606034364678   Change is   -0.000000000001479
 Root      3 :     6.597902345460323   Change is   -0.000000000000088
 Convergence achieved on expansion vectors.
 ***********************************************************************
 Excited states from <AA,BB:AA,BB> singles matrix:
 ***********************************************************************
 
 1PDM for each excited state written to RWF  633
 Ground to excited state transition densities written to RWF  633
 Ground to excited state transition electric dipole moments (Au):
       state          X           Y           Z        Dip. S.      Osc.
         1        -0.0000     -0.0000     -0.0000      0.0000      0.0000
         2        -0.0000     -0.0000     -0.0000      0.0000      0.0000
         3        -0.0000     -0.0000     -0.0000      0.0000      0.0000
 Ground to excited state transition velocity dipole moments (Au):
       state          X           Y           Z        Dip. S.      Osc.
         1         0.0000      0.0000      0.0000      0.0000      0.0000
         2         0.0000      0.0000      0.0000      0.0000      0.0000
         3         0.0000      0.0000      0.0000      0.0000      0.0000
 Ground to excited state transition magnetic dipole moments (Au):
       state          X           Y           Z
         1         0.0000      0.0000      0.0000
         2         0.0000      0.0000      0.0000
         3         0.0000      0.0000      0.0000
 Ground to excited state transition velocity quadrupole moments (Au):
       state          XX          YY          ZZ          XY          XZ          YZ
         1         0.0000      0.0000      0.0000      0.0000      0.0000      0.0000
         2         0.0000      0.0000      0.0000      0.0000      0.0000      0.0000
         3         0.0000      0.0000      0.0000      0.0000      0.0000      0.0000
 <0|del|b> * <b|rxdel|0> + <0|del|b> * <b|delr+rdel|0>
 Rotatory Strengths (R) in cgs (10**-40 erg-esu-cm/Gauss)
       state          XX          YY          ZZ    R(velocity)    E-M Angle
         1         0.0000      0.0000      0.0000      0.0000       90.00
         2         0.0000      0.0000      0.0000      0.0000       90.00
         3         0.0000      0.0000      0.0000      0.0000       90.00
 1/2[<0|r|b>*<b|rxdel|0> + (<0|rxdel|b>*<b|r|0>)*]
 Rotatory Strengths (R) in cgs (10**-40 erg-esu-cm/Gauss)
       state          XX          YY          ZZ     R(length)
         1         0.0000      0.0000      0.0000      0.0000
         2         0.0000      0.0000      0.0000      0.0000
         3         0.0000      0.0000      0.0000      0.0000
  1/2[<0|del|b>*<b|r|0> + (<0|r|b>*<b|del|0>)*] (Au)
       state          X           Y           Z        Dip. S.   Osc.(frdel)
         1        -0.0000     -0.0000     -0.0000      0.0000      0.0000
         2        -0.0000     -0.0000     -0.0000      0.0000      0.0000
         3        -0.0000     -0.0000     -0.0000      0.0000      0.0000

 Excitation energies and oscillator strengths:
 
 Excited state symmetry could not be determined.
 Excited State   1:      Triplet-?Sym    5.2236 eV  237.35 nm  f=0.0000  <S**2>=2.000
       7 ->  8         0.70164
 This state for optimization and/or second-order correction.
 Total Energy, E(TD-HF/TD-DFT) =  -113.100355570    
 Copying the excited state density for this state as the 1-particle RhoCI density.
 
 Excited state symmetry could not be determined.
 Excited State   2:      Triplet-?Sym    5.2236 eV  237.35 nm  f=0.0000  <S**2>=2.000
       7 ->  9        -0.70164
 
 Excited state symmetry could not be determined.
 Excited State   3:      Triplet-?Sym    6.5979 eV  187.91 nm  f=0.0000  <S**2>=2.000
       5 ->  8         0.50445
       6 ->  9         0.50445
 SavETr:  write IOETrn=   770 NScale= 10 NData=  16 NLR=1 NState=    3 LETran=      64.
 The selected state is a triplet.
 CISGrd: IGrad=2 NXY=2 DFT=T
 CISAX will form     1 AO SS matrices at one time.
 Spin AA IR=    1 I=   6 J=   5 Mu=   10 Nu=   11 IOp=3 MuP=    10 NuP=   -11
 Err= 5.48D-02 FactIJ= 1.0 Fact=-1.0
 A= 2.7376530519D-02 AP=-2.7376530519D-02 B=-2.7376530519D-02 BP= 2.7376530519D-02
 NMat=     1 NSing=     0 JSym2X= 2.
 Leave Link  914 at Mon Jun 12 20:10:03 2023, MaxMem=   104857600 cpu:               3.8 elap:               3.8
 (Enter /home/linux-pohl-v2/Escritorio/Gaussian/g16/l1002.exe)
 Minotr:  Closed shell wavefunction.
          Computing CIS/TDA/TD derivatives.
          Using Z-Vector for PSCF gradient.
          Skipping F1 and S1 gradient terms here.
          IDoAtm=11
          Frozen-core window.
          Direct CPHF calculation.
          Differentiating once with respect to electric field.
                with respect to dipole field.
          Differentiating once with respect to nuclear coordinates.
          Requested convergence is 1.0D-10 RMS, and 1.0D-09 maximum.
          NewPWx=F KeepS1=T KeepF1=T KeepIn=T MapXYZ=F SortEE=F KeepMc=T.
 Keep R1 ints in memory in symmetry-blocked form, NReq=928692.
 FoFCou: FMM=F IPFlag=           0 FMFlag=           0 FMFlg1=           0
         NFxFlg=           0 DoJE=F BraDBF=F KetDBF=F FulRan=T
         wScrn=  0.000000 ICntrl=       600 IOpCl=  0 I1Cent=           0 NGrid=           0
         NMat0=    1 NMatS0=    351 NMatT0=    0 NMatD0=    1 NMtDS0=    0 NMtDT0=    0
 Petite list used in FoFCou.
 Two-electron integral symmetry used by symmetrizing perturbed Fock matrices.
          MDV=     104857600 using IRadAn=       5.
          Solving linear equations separately, MaxMat=       0.
          There are     1 degrees of freedom in the 1st order CPHF.  IDoFFX=0 NUNeed=     1.
 IMat=     1 ErrA=  1.19D-01  1.56D+00  1.56D+00  1.56D+00
 LinEq1:  Iter=  0 NonCon=     1 RMS=5.92D-02 Max=4.92D-01 NDo=     1
 AX will form     1 AO Fock derivatives at one time.
 IMat=     1 ErrA=  9.56D-03  1.29D+00  1.29D+00  1.29D+00
 LinEq1:  Iter=  1 NonCon=     1 RMS=4.72D-02 Max=3.44D-01 NDo=     1
 IMat=     1 ErrA=  2.65D-02  1.98D+00  1.98D+00  1.98D+00
 LinEq1:  Iter=  2 NonCon=     1 RMS=9.25D-03 Max=4.90D-02 NDo=     1
 IMat=     1 ErrA=  6.15D-03  2.76D-01  2.76D-01  2.76D-01
 LinEq1:  Iter=  3 NonCon=     1 RMS=2.93D-03 Max=1.33D-02 NDo=     1
 IMat=     1 ErrA=  1.28D-03  5.42D-02  5.42D-02  5.42D-02
 LinEq1:  Iter=  4 NonCon=     1 RMS=2.48D-04 Max=1.32D-03 NDo=     1
 IMat=     1 ErrA=  1.20D-04  6.36D-03  6.36D-03  6.36D-03
 LinEq1:  Iter=  5 NonCon=     1 RMS=1.83D-05 Max=8.90D-05 NDo=     1
 IMat=     1 ErrA=  1.04D-05  2.15D-04  2.15D-04  2.15D-04
 LinEq1:  Iter=  6 NonCon=     1 RMS=1.19D-06 Max=5.19D-06 NDo=     1
 IMat=     1 ErrA=  6.62D-07  1.38D-05  1.38D-05  1.38D-05
 LinEq1:  Iter=  7 NonCon=     1 RMS=1.05D-07 Max=6.29D-07 NDo=     1
 IMat=     1 ErrA=  4.97D-08  1.39D-06  1.39D-06  1.39D-06
 LinEq1:  Iter=  8 NonCon=     1 RMS=4.40D-09 Max=2.18D-08 NDo=     1
 IMat=     1 ErrA=  5.83D-09  7.76D-08  7.76D-08  7.76D-08
 LinEq1:  Iter=  9 NonCon=     1 RMS=1.23D-10 Max=5.10D-10 NDo=     1
 IMat=     1 ErrA=  1.67D-10  3.06D-09  3.06D-09  3.06D-09
 LinEq1:  Iter= 10 NonCon=     0 RMS=3.58D-12 Max=1.61D-11 NDo=     1
 Linear equations converged to 1.000D-10 1.000D-09 after    10 iterations.
 End of Minotr F.D. properties file   721 does not exist.
 End of Minotr F.D. properties file   722 does not exist.
 End of Minotr F.D. properties file   788 does not exist.
 Leave Link 1002 at Mon Jun 12 20:10:04 2023, MaxMem=   104857600 cpu:               1.7 elap:               1.7
 (Enter /home/linux-pohl-v2/Escritorio/Gaussian/g16/l701.exe)
 ... and contract with generalized density number  6.
 Compute integral first derivatives.
 Density matrix is not symmetric, so symmetry will not be used here.
 Leave Link  701 at Mon Jun 12 20:10:04 2023, MaxMem=   104857600 cpu:               0.1 elap:               0.1
 (Enter /home/linux-pohl-v2/Escritorio/Gaussian/g16/l702.exe)
 L702 exits ... SP integral derivatives will be done elsewhere.
 Leave Link  702 at Mon Jun 12 20:10:05 2023, MaxMem=   104857600 cpu:               0.0 elap:               0.0
 (Enter /home/linux-pohl-v2/Escritorio/Gaussian/g16/l703.exe)
 Integral derivatives from FoFJK, PRISM(SPDF).
 Compute integral first derivatives, UseDBF=F ICtDFT=           0.
 Density matrix is not symmetric, so symmetry will not be used here.
 Calling FoFJK, ICntrl=  10005127 FMM=F ISym2X=0 I1Cent= 0 IOpClX= 0 NMat=1 NMatS=1 NMatT=0.
 FoFJK:  IHMeth= 1 ICntrl=10005127 DoSepK=F KAlg= 0 I1Cent=           0 FoldK=F
 IRaf=         0 NMat=       1 IRICut=       1 DoRegI=T DoRafI=F ISym2E= 0 IDoP0=0 IntGTp=1.
 FoFCou: FMM=F IPFlag=           0 FMFlag=      100000 FMFlg1=         800
         NFxFlg=           0 DoJE=F BraDBF=F KetDBF=F FulRan=T
         wScrn=  0.000000 ICntrl=  10005127 IOpCl=  0 I1Cent=           0 NGrid=           0
         NMat0=    1 NMatS0=      1 NMatT0=    0 NMatD0=    1 NMtDS0=    0 NMtDT0=    0
 Symmetry not used in FoFCou.
 Leave Link  703 at Mon Jun 12 20:10:05 2023, MaxMem=   104857600 cpu:               0.3 elap:               0.3
 (Enter /home/linux-pohl-v2/Escritorio/Gaussian/g16/l716.exe)
 Dipole        = 7.95452947D-16 5.92940946D-15-6.53293371D-01
 ***** Axes restored to original set *****
 -------------------------------------------------------------------
 Center     Atomic                   Forces (Hartrees/Bohr)
 Number     Number              X              Y              Z
 -------------------------------------------------------------------
      1        6          -0.057302683    0.000578818   -0.002341717
      2        8           0.057302683   -0.000578818    0.002341717
 -------------------------------------------------------------------
 Cartesian Forces:  Max     0.057302683 RMS     0.033113020
 Leave Link  716 at Mon Jun 12 20:10:05 2023, MaxMem=   104857600 cpu:               0.0 elap:               0.0
 (Enter /home/linux-pohl-v2/Escritorio/Gaussian/g16/l103.exe)

 GradGradGradGradGradGradGradGradGradGradGradGradGradGradGradGradGradGrad
 Berny optimization.
 Using GEDIIS/GDIIS optimizer.
 Red2BG is reusing G-inverse.
 Internal  Forces:  Max     0.057353432 RMS     0.057353432
 Search for a local minimum.
 Step number   2 out of a maximum of   20
 All quantities printed in internal units (Hartrees-Bohrs-Radians)
 RMS Force = .57353D-01 SwitMx=.10000D-02 MixMth= 1
 Mixed Optimization -- RFO/linear search
 Update second derivatives using D2CorX and points    1    2
 DE= -1.86D-02 DEPred=-1.58D-02 R= 1.18D+00
 TightC=F SS=  1.41D+00  RLast= 1.40D-01 DXNew= 5.0454D-01 4.2046D-01
 Trust test= 1.18D+00 RLast= 1.40D-01 DXMaxT set to 4.20D-01
 The second derivative matrix:
                          R1
           R1           1.17012
 ITU=  1  0
 Use linear search instead of GDIIS.
     Eigenvalues ---    1.17012
 RFO step:  Lambda= 0.00000000D+00 EMin= 1.17011796D+00
 Quartic linear search produced a step of  0.52736.
 Iteration  1 RMS(Cart)=  0.05226256 RMS(Int)=  0.00000000
 Iteration  2 RMS(Cart)=  0.00000000 RMS(Int)=  0.00000000
 ITry= 1 IFail=0 DXMaxC= 3.69D-02 DCOld= 1.00D+10 DXMaxT= 4.20D-01 DXLimC= 3.00D+00 Rises=F
 Variable       Old X    -DE/DX   Delta X   Delta X   Delta X     New X
                                 (Linear)    (Quad)   (Total)
    R1        2.26363   0.05735   0.07391  -0.00000   0.07391   2.33754
         Item               Value     Threshold  Converged?
 Maximum Force            0.057353     0.000450     NO 
 RMS     Force            0.057353     0.000300     NO 
 Maximum Displacement     0.036923     0.001800     NO 
 RMS     Displacement     0.052263     0.001200     NO 
 Predicted change in Energy=-1.042985D-03
 Lowest energy point so far.  Saving SCF results.
 GradGradGradGradGradGradGradGradGradGradGradGradGradGradGradGradGradGrad

 Leave Link  103 at Mon Jun 12 20:10:05 2023, MaxMem=   104857600 cpu:               0.0 elap:               0.0
 (Enter /home/linux-pohl-v2/Escritorio/Gaussian/g16/l202.exe)
                          Input orientation:                          
 ---------------------------------------------------------------------
 Center     Atomic      Atomic             Coordinates (Angstroms)
 Number     Number       Type             X           Y           Z
 ---------------------------------------------------------------------
      1          6           0       -2.283614    0.499775  -11.848545
      2          8           0       -1.047735    0.487291  -11.798040
 ---------------------------------------------------------------------
 Stoichiometry    CO
 Framework group  C*V[C*(CO)]
 Deg. of freedom     1
 Full point group                 C*V     NOp   4
 RotChk:  IX=0 Diff= 1.48D-15
 Largest Abelian subgroup         C2V     NOp   4
 Largest concise Abelian subgroup C1      NOp   1
                         Standard orientation:                         
 ---------------------------------------------------------------------
 Center     Atomic      Atomic             Coordinates (Angstroms)
 Number     Number       Type             X           Y           Z
 ---------------------------------------------------------------------
      1          6           0        0.000000    0.000000   -0.706841
      2          8           0        0.000000   -0.000000    0.530131
 ---------------------------------------------------------------------
 Rotational constants (GHZ):           0.0000000          48.1740395          48.1740395
 Leave Link  202 at Mon Jun 12 20:10:05 2023, MaxMem=   104857600 cpu:               0.0 elap:               0.0
 (Enter /home/linux-pohl-v2/Escritorio/Gaussian/g16/l301.exe)
 Standard basis: 6-311G (5D, 7F)
 Ernie: Thresh=  0.10000D-02 Tol=  0.10000D-05 Strict=F.
 There are    14 symmetry adapted cartesian basis functions of A1  symmetry.
 There are     0 symmetry adapted cartesian basis functions of A2  symmetry.
 There are     6 symmetry adapted cartesian basis functions of B1  symmetry.
 There are     6 symmetry adapted cartesian basis functions of B2  symmetry.
 There are    14 symmetry adapted basis functions of A1  symmetry.
 There are     0 symmetry adapted basis functions of A2  symmetry.
 There are     6 symmetry adapted basis functions of B1  symmetry.
 There are     6 symmetry adapted basis functions of B2  symmetry.
    26 basis functions,    52 primitive gaussians,    26 cartesian basis functions
     7 alpha electrons        7 beta electrons
       nuclear repulsion energy        20.5344140746 Hartrees.
 IExCor=  402 DFT=T Ex+Corr=B3LYP ExCW=0 ScaHFX=  0.200000
 ScaDFX=  0.800000  0.720000  1.000000  0.810000 ScalE2=  1.000000  1.000000
 IRadAn=      5 IRanWt=     -1 IRanGd=            0 ICorTp=0 IEmpDi=  4
 NAtoms=    2 NActive=    2 NUniq=    2 SFac= 1.00D+00 NAtFMM=   60 NAOKFM=F Big=F
 Integral buffers will be    131072 words long.
 Regular integral format.
 Two-electron integral symmetry is turned on.
 Leave Link  301 at Mon Jun 12 20:10:05 2023, MaxMem=   104857600 cpu:               0.0 elap:               0.0
 (Enter /home/linux-pohl-v2/Escritorio/Gaussian/g16/l302.exe)
 NPDir=0 NMtPBC=     1 NCelOv=     1 NCel=       1 NClECP=     1 NCelD=      1
         NCelK=      1 NCelE2=     1 NClLst=     1 CellRange=     0.0.
 One-electron integrals computed using PRISM.
 One-electron integral symmetry used in STVInt
 NBasis=    26 RedAO= T EigKep=  2.75D-02  NBF=    14     0     6     6
 NBsUse=    26 1.00D-06 EigRej= -1.00D+00 NBFU=    14     0     6     6
 Precomputing XC quadrature grid using
 IXCGrd= 4 IRadAn=           5 IRanWt=          -1 IRanGd=           0 AccXCQ= 0.00D+00.
 Generated NRdTot=       0 NPtTot=           0 NUsed=           0 NTot=          32
 NSgBfM=    26    26    26    26    26 MxSgAt=     2 MxSgA2=     2.
 Leave Link  302 at Mon Jun 12 20:10:05 2023, MaxMem=   104857600 cpu:               0.1 elap:               0.1
 (Enter /home/linux-pohl-v2/Escritorio/Gaussian/g16/l303.exe)
 DipDrv:  MaxL=1.
 Leave Link  303 at Mon Jun 12 20:10:05 2023, MaxMem=   104857600 cpu:               0.0 elap:               0.0
 (Enter /home/linux-pohl-v2/Escritorio/Gaussian/g16/l308.exe)
 Leave Link  308 at Mon Jun 12 20:10:05 2023, MaxMem=   104857600 cpu:               0.0 elap:               0.0
 (Enter /home/linux-pohl-v2/Escritorio/Gaussian/g16/l401.exe)
 Initial guess from the checkpoint file:  "/tmp/Gau-34275.chk"
 B after Tr=    -0.000000   -0.000000   -0.000000
         Rot=    1.000000   -0.000000    0.000000    0.000000 Ang=   0.00 deg.
 Guess basis will be translated and rotated to current coordinates.
 JPrj=2 DoOrth=T DoCkMO=T.
 Initial guess orbital symmetries:
       Occupied  (SG) (SG) (SG) (SG) (PI) (PI) (SG)
       Virtual   (PI) (PI) (SG) (PI) (PI) (SG) (SG) (SG) (PI) (PI)
                 (SG) (PI) (PI) (SG) (PI) (PI) (SG) (SG) (SG)
 The electronic state of the initial guess is 1-SG.
 Generating alternative initial guess.
 ExpMin= 1.46D-01 ExpMax= 8.59D+03 ExpMxC= 1.30D+03 IAcc=3 IRadAn=         5 AccDes= 0.00D+00
 Harris functional with IExCor=  402 and IRadAn=       5 diagonalized for initial guess.
 HarFok:  IExCor=  402 AccDes= 0.00D+00 IRadAn=         5 IDoV= 1 UseB2=F ITyADJ=14
 ICtDFT=  3500011 ScaDFX=  1.000000  1.000000  1.000000  1.000000
 FoFCou: FMM=F IPFlag=           0 FMFlag=      100000 FMFlg1=           0
         NFxFlg=           0 DoJE=T BraDBF=F KetDBF=T FulRan=T
         wScrn=  0.000000 ICntrl=       500 IOpCl=  0 I1Cent=   200000004 NGrid=           0
         NMat0=    1 NMatS0=      1 NMatT0=    0 NMatD0=    1 NMtDS0=    0 NMtDT0=    0
 Petite list used in FoFCou.
 Harris En= -113.290142114450    
 Leave Link  401 at Mon Jun 12 20:10:05 2023, MaxMem=   104857600 cpu:               0.1 elap:               0.1
 (Enter /home/linux-pohl-v2/Escritorio/Gaussian/g16/l502.exe)
 Keep R1 ints in memory in symmetry-blocked form, NReq=927177.
 FoFCou: FMM=F IPFlag=           0 FMFlag=           0 FMFlg1=           0
         NFxFlg=           0 DoJE=F BraDBF=F KetDBF=F FulRan=T
         wScrn=  0.000000 ICntrl=       600 IOpCl=  0 I1Cent=           0 NGrid=           0
         NMat0=    1 NMatS0=    351 NMatT0=    0 NMatD0=    1 NMtDS0=    0 NMtDT0=    0
 Petite list used in FoFCou.
 Closed shell SCF:
 Using DIIS extrapolation, IDIIS=  1040.
 NGot=   104857600 LenX=   104835198 LenY=   104834081
 Requested convergence on RMS density matrix=1.00D-08 within 128 cycles.
 Requested convergence on MAX density matrix=1.00D-06.
 Requested convergence on             energy=1.00D-06.
 No special actions if energy rises.
 Integral accuracy reduced to 1.0D-05 until final iterations.

 Cycle   1  Pass 0  IDiag  1:
 E= -113.282780795631    
 DIIS: error= 7.78D-03 at cycle   1 NSaved=   1.
 NSaved= 1 IEnMin= 1 EnMin= -113.282780795631     IErMin= 1 ErrMin= 7.78D-03
 ErrMax= 7.78D-03  0.00D+00 EMaxC= 1.00D-01 BMatC= 1.32D-03 BMatP= 1.32D-03
 IDIUse=3 WtCom= 9.22D-01 WtEn= 7.78D-02
 Coeff-Com:  0.100D+01
 Coeff-En:   0.100D+01
 Coeff:      0.100D+01
 Gap=     0.311 Goal=   None    Shift=    0.000
 GapD=    0.311 DampG=1.000 DampE=1.000 DampFc=1.0000 IDamp=-1.
 RMSDP=1.39D-03 MaxDP=8.23D-03              OVMax= 1.36D-02

 Cycle   2  Pass 0  IDiag  1:
 E= -113.283184065887     Delta-E=       -0.000403270256 Rises=F Damp=F
 DIIS: error= 7.46D-03 at cycle   2 NSaved=   2.
 NSaved= 2 IEnMin= 2 EnMin= -113.283184065887     IErMin= 2 ErrMin= 7.46D-03
[...]
 Iteration    10 Dimension    40 NMult    38 NNew      2
 CISAX will form     2 AO SS matrices at one time.
 Spin AA IR=    2 I=   9 J=   1 Mu=    6 Nu=   24 IOp=3 MuP=     6 NuP=   -24
 Err= 2.91D-04 FactIJ= 1.0 Fact=-1.0
 A=-1.4570743969D-04 AP= 1.4570743969D-04 B= 1.4570743969D-04 BP=-1.4570743969D-04
 NMat=     2 NSing=     0 JSym2X= 2.
 Root      1 not converged, maximum delta is    0.000059685228843
 Root      2 not converged, maximum delta is    0.000059685251609
 Root      3 has converged.
 Excitation Energies [eV] at current iteration:
 Root      1 :     4.947689981405224   Change is   -0.000000000765568
 Root      2 :     4.947690479196948   Change is    0.000000000761962
 Root      3 :     5.942216868343441   Change is    0.000000000000042
 Convergence achieved on expansion vectors.
 ***********************************************************************
 Excited states from <AA,BB:AA,BB> singles matrix:
 ***********************************************************************
 
 1PDM for each excited state written to RWF  633
 Ground to excited state transition densities written to RWF  633
 Ground to excited state transition electric dipole moments (Au):
       state          X           Y           Z        Dip. S.      Osc.
         1        -0.0000     -0.0000     -0.0000      0.0000      0.0000
         2        -0.0000     -0.0000     -0.0000      0.0000      0.0000
         3        -0.0000     -0.0000     -0.0000      0.0000      0.0000
 Ground to excited state transition velocity dipole moments (Au):
       state          X           Y           Z        Dip. S.      Osc.
         1         0.0000      0.0000      0.0000      0.0000      0.0000
         2         0.0000      0.0000      0.0000      0.0000      0.0000
         3         0.0000      0.0000      0.0000      0.0000      0.0000
 Ground to excited state transition magnetic dipole moments (Au):
       state          X           Y           Z
         1         0.0000      0.0000      0.0000
         2         0.0000      0.0000      0.0000
         3         0.0000      0.0000      0.0000
 Ground to excited state transition velocity quadrupole moments (Au):
       state          XX          YY          ZZ          XY          XZ          YZ
         1         0.0000      0.0000      0.0000      0.0000      0.0000      0.0000
         2         0.0000      0.0000      0.0000      0.0000      0.0000      0.0000
         3         0.0000      0.0000      0.0000      0.0000      0.0000      0.0000
 <0|del|b> * <b|rxdel|0> + <0|del|b> * <b|delr+rdel|0>
 Rotatory Strengths (R) in cgs (10**-40 erg-esu-cm/Gauss)
       state          XX          YY          ZZ    R(velocity)    E-M Angle
         1         0.0000      0.0000      0.0000      0.0000       90.00
         2         0.0000      0.0000      0.0000      0.0000       90.00
         3         0.0000      0.0000      0.0000      0.0000       90.00
 1/2[<0|r|b>*<b|rxdel|0> + (<0|rxdel|b>*<b|r|0>)*]
 Rotatory Strengths (R) in cgs (10**-40 erg-esu-cm/Gauss)
       state          XX          YY          ZZ     R(length)
         1         0.0000      0.0000      0.0000      0.0000
         2         0.0000      0.0000      0.0000      0.0000
         3         0.0000      0.0000      0.0000      0.0000
  1/2[<0|del|b>*<b|r|0> + (<0|r|b>*<b|del|0>)*] (Au)
       state          X           Y           Z        Dip. S.   Osc.(frdel)
         1        -0.0000     -0.0000     -0.0000      0.0000      0.0000
         2        -0.0000     -0.0000     -0.0000      0.0000      0.0000
         3        -0.0000     -0.0000     -0.0000      0.0000      0.0000

 Excitation energies and oscillator strengths:
 
 Excited state symmetry could not be determined.
 Excited State   1:      Triplet-?Sym    4.9477 eV  250.59 nm  f=0.0000  <S**2>=2.000
       7 ->  8        -0.69863
       7 ->  9        -0.11720
 This state for optimization and/or second-order correction.
 Total Energy, E(TD-HF/TD-DFT) =  -113.102327589    
 Copying the excited state density for this state as the 1-particle RhoCI density.
 
 Excited state symmetry could not be determined.
 Excited State   2:      Triplet-?Sym    4.9477 eV  250.59 nm  f=0.0000  <S**2>=2.000
       7 ->  8         0.11720
       7 ->  9        -0.69863
 
 Excited state symmetry could not be determined.
 Excited State   3:      Triplet-?Sym    5.9422 eV  208.65 nm  f=0.0000  <S**2>=2.000
       5 ->  8         0.50590
       6 ->  9         0.50590
 SavETr:  write IOETrn=   770 NScale= 10 NData=  16 NLR=1 NState=    3 LETran=      64.
 The selected state is a triplet.
 CISGrd: IGrad=2 NXY=2 DFT=T
 CISAX will form     1 AO SS matrices at one time.
 Spin AA IR=    1 I=  21 J=   3 Mu=   10 Nu=    8 IOp=2 MuP=    10 NuP=    -8
 Err= 3.78D-01 FactIJ= 1.0 Fact=-1.0
 A=-1.8891574478D-01 AP= 1.8891574478D-01 B= 1.8891574478D-01 BP=-1.8891574478D-01
 NMat=     1 NSing=     0 JSym2X= 2.
 Leave Link  914 at Mon Jun 12 20:10:18 2023, MaxMem=   104857600 cpu:               5.1 elap:               5.1
 (Enter /home/linux-pohl-v2/Escritorio/Gaussian/g16/l1002.exe)
 Minotr:  Closed shell wavefunction.
          Computing CIS/TDA/TD derivatives.
          Using Z-Vector for PSCF gradient.
          Skipping F1 and S1 gradient terms here.
          IDoAtm=11
          Frozen-core window.
          Direct CPHF calculation.
          Differentiating once with respect to electric field.
                with respect to dipole field.
          Differentiating once with respect to nuclear coordinates.
          Requested convergence is 1.0D-10 RMS, and 1.0D-09 maximum.
          NewPWx=F KeepS1=T KeepF1=T KeepIn=T MapXYZ=F SortEE=F KeepMc=T.
 Keep R1 ints in memory in symmetry-blocked form, NReq=928692.
 FoFCou: FMM=F IPFlag=           0 FMFlag=           0 FMFlg1=           0
         NFxFlg=           0 DoJE=F BraDBF=F KetDBF=F FulRan=T
         wScrn=  0.000000 ICntrl=       600 IOpCl=  0 I1Cent=           0 NGrid=           0
         NMat0=    1 NMatS0=    351 NMatT0=    0 NMatD0=    1 NMtDS0=    0 NMtDT0=    0
 Petite list used in FoFCou.
 Two-electron integral symmetry used by symmetrizing perturbed Fock matrices.
          MDV=     104857600 using IRadAn=       5.
          Solving linear equations separately, MaxMat=       0.
          There are     1 degrees of freedom in the 1st order CPHF.  IDoFFX=0 NUNeed=     1.
 IMat=     1 ErrA=  1.38D-01  1.47D+00  1.47D+00  1.47D+00
 LinEq1:  Iter=  0 NonCon=     1 RMS=5.38D-02 Max=4.46D-01 NDo=     1
 AX will form     1 AO Fock derivatives at one time.
 IMat=     1 ErrA=  1.13D-02  1.17D+00  1.17D+00  1.17D+00
 LinEq1:  Iter=  1 NonCon=     1 RMS=5.02D-02 Max=3.66D-01 NDo=     1
 IMat=     1 ErrA=  3.28D-02  1.95D+00  1.95D+00  1.95D+00
 LinEq1:  Iter=  2 NonCon=     1 RMS=9.76D-03 Max=5.26D-02 NDo=     1
 IMat=     1 ErrA=  8.05D-03  2.76D-01  2.76D-01  2.76D-01
 LinEq1:  Iter=  3 NonCon=     1 RMS=3.08D-03 Max=1.39D-02 NDo=     1
 IMat=     1 ErrA=  1.52D-03  5.63D-02  5.63D-02  5.63D-02
 LinEq1:  Iter=  4 NonCon=     1 RMS=2.90D-04 Max=1.60D-03 NDo=     1
 IMat=     1 ErrA=  1.69D-04  7.00D-03  7.00D-03  7.00D-03
 LinEq1:  Iter=  5 NonCon=     1 RMS=2.23D-05 Max=9.96D-05 NDo=     1
 IMat=     1 ErrA=  1.37D-05  2.48D-04  2.48D-04  2.48D-04
 LinEq1:  Iter=  6 NonCon=     1 RMS=1.61D-06 Max=7.22D-06 NDo=     1
 IMat=     1 ErrA=  8.71D-07  1.55D-05  1.55D-05  1.55D-05
 LinEq1:  Iter=  7 NonCon=     1 RMS=1.45D-07 Max=8.86D-07 NDo=     1
 IMat=     1 ErrA=  9.42D-08  1.77D-06  1.77D-06  1.77D-06
 LinEq1:  Iter=  8 NonCon=     1 RMS=6.27D-09 Max=2.79D-08 NDo=     1
 IMat=     1 ErrA=  9.93D-09  1.09D-07  1.09D-07  1.09D-07
 LinEq1:  Iter=  9 NonCon=     1 RMS=1.71D-10 Max=6.66D-10 NDo=     1
 IMat=     1 ErrA=  2.74D-10  4.17D-09  4.17D-09  4.17D-09
 LinEq1:  Iter= 10 NonCon=     0 RMS=4.59D-12 Max=1.85D-11 NDo=     1
 Linear equations converged to 1.000D-10 1.000D-09 after    10 iterations.
 End of Minotr F.D. properties file   721 does not exist.
 End of Minotr F.D. properties file   722 does not exist.
 End of Minotr F.D. properties file   788 does not exist.
 Leave Link 1002 at Mon Jun 12 20:10:19 2023, MaxMem=   104857600 cpu:               1.7 elap:               1.7
 (Enter /home/linux-pohl-v2/Escritorio/Gaussian/g16/l701.exe)
 ... and contract with generalized density number  6.
 Compute integral first derivatives.
 Density matrix is not symmetric, so symmetry will not be used here.
 Leave Link  701 at Mon Jun 12 20:10:19 2023, MaxMem=   104857600 cpu:               0.0 elap:               0.1
 (Enter /home/linux-pohl-v2/Escritorio/Gaussian/g16/l702.exe)
 L702 exits ... SP integral derivatives will be done elsewhere.
 Leave Link  702 at Mon Jun 12 20:10:19 2023, MaxMem=   104857600 cpu:               0.0 elap:               0.0
 (Enter /home/linux-pohl-v2/Escritorio/Gaussian/g16/l703.exe)
 Integral derivatives from FoFJK, PRISM(SPDF).
 Compute integral first derivatives, UseDBF=F ICtDFT=           0.
 Density matrix is not symmetric, so symmetry will not be used here.
 Calling FoFJK, ICntrl=  10005127 FMM=F ISym2X=0 I1Cent= 0 IOpClX= 0 NMat=1 NMatS=1 NMatT=0.
 FoFJK:  IHMeth= 1 ICntrl=10005127 DoSepK=F KAlg= 0 I1Cent=           0 FoldK=F
 IRaf=         0 NMat=       1 IRICut=       1 DoRegI=T DoRafI=F ISym2E= 0 IDoP0=0 IntGTp=1.
 FoFCou: FMM=F IPFlag=           0 FMFlag=      100000 FMFlg1=         800
         NFxFlg=           0 DoJE=F BraDBF=F KetDBF=F FulRan=T
         wScrn=  0.000000 ICntrl=  10005127 IOpCl=  0 I1Cent=           0 NGrid=           0
         NMat0=    1 NMatS0=      1 NMatT0=    0 NMatD0=    1 NMtDS0=    0 NMtDT0=    0
 Symmetry not used in FoFCou.
 Leave Link  703 at Mon Jun 12 20:10:20 2023, MaxMem=   104857600 cpu:               0.3 elap:               0.3
 (Enter /home/linux-pohl-v2/Escritorio/Gaussian/g16/l716.exe)
 Dipole        =-4.37291318D-16-2.50592604D-15-6.66956950D-01
 ***** Axes restored to original set *****
 -------------------------------------------------------------------
 Center     Atomic                   Forces (Hartrees/Bohr)
 Number     Number              X              Y              Z
 -------------------------------------------------------------------
      1        6          -0.000002475    0.000000025   -0.000000101
      2        8           0.000002475   -0.000000025    0.000000101
 -------------------------------------------------------------------
 Cartesian Forces:  Max     0.000002475 RMS     0.000001430
 Leave Link  716 at Mon Jun 12 20:10:20 2023, MaxMem=   104857600 cpu:               0.0 elap:               0.0
 (Enter /home/linux-pohl-v2/Escritorio/Gaussian/g16/l103.exe)

 GradGradGradGradGradGradGradGradGradGradGradGradGradGradGradGradGradGrad
 Berny optimization.
 Using GEDIIS/GDIIS optimizer.
 Red2BG is reusing G-inverse.
 Internal  Forces:  Max     0.000002477 RMS     0.000002477
 Search for a local minimum.
 Step number   4 out of a maximum of   20
 All quantities printed in internal units (Hartrees-Bohrs-Radians)
 RMS Force = .24768D-05 SwitMx=.10000D-02 MixMth= 2
 Mixed Optimization -- En-DIIS/RFO-DIIS
 Update second derivatives using D2CorX and points    3    4
 DE= -1.33D-06 DEPred=-1.13D-06 R= 1.18D+00
 TightC=F SS=  1.41D+00  RLast= 1.96D-03 DXNew= 7.0712D-01 5.8712D-03
 Trust test= 1.18D+00 RLast= 1.96D-03 DXMaxT set to 4.20D-01
 The second derivative matrix:
                          R1
           R1           0.69213
 ITU=  1  1
 Use linear search instead of GDIIS.
     Eigenvalues ---    0.69213
 RFO step:  Lambda= 0.00000000D+00 EMin= 6.92133022D-01
 Quartic linear search produced a step of -0.00181.
 Iteration  1 RMS(Cart)=  0.00000250 RMS(Int)=  0.00000000
 Iteration  2 RMS(Cart)=  0.00000000 RMS(Int)=  0.00000000
 ITry= 1 IFail=0 DXMaxC= 1.77D-06 DCOld= 1.00D+10 DXMaxT= 4.20D-01 DXLimC= 3.00D+00 Rises=F
 Variable       Old X    -DE/DX   Delta X   Delta X   Delta X     New X
                                 (Linear)    (Quad)   (Total)
    R1        2.33558   0.00000   0.00000   0.00000   0.00000   2.33559
         Item               Value     Threshold  Converged?
 Maximum Force            0.000002     0.000450     YES
 RMS     Force            0.000002     0.000300     YES
 Maximum Displacement     0.000002     0.001800     YES
 RMS     Displacement     0.000003     0.001200     YES
 Predicted change in Energy=-4.431132D-12
 Optimization completed.
    -- Stationary point found.
                           ----------------------------
                           !   Optimized Parameters   !
                           ! (Angstroms and Degrees)  !
 --------------------------                            --------------------------
 ! Name  Definition              Value          Derivative Info.                !
 --------------------------------------------------------------------------------
 ! R1    R(1,2)                  1.2359         -DE/DX =    0.0                 !
 --------------------------------------------------------------------------------
 Lowest energy point so far.  Saving SCF results.
 Largest change from initial coordinates is atom    1       0.048 Angstoms.
 GradGradGradGradGradGradGradGradGradGradGradGradGradGradGradGradGradGrad

 Leave Link  103 at Mon Jun 12 20:10:20 2023, MaxMem=   104857600 cpu:               0.0 elap:               0.0
 (Enter /home/linux-pohl-v2/Escritorio/Gaussian/g16/l202.exe)
                          Input orientation:                          
 ---------------------------------------------------------------------
 Center     Atomic      Atomic             Coordinates (Angstroms)
 Number     Number       Type             X           Y           Z
 ---------------------------------------------------------------------
      1          6           0       -2.283096    0.499770  -11.848524
      2          8           0       -1.048253    0.487296  -11.798061
 ---------------------------------------------------------------------
 Stoichiometry    CO
 Framework group  C*V[C*(CO)]
 Deg. of freedom     1
 Full point group                 C*V     NOp   4
 RotChk:  IX=0 Diff= 2.27D-16
 Largest Abelian subgroup         C2V     NOp   4
 Largest concise Abelian subgroup C1      NOp   1
                         Standard orientation:                         
 ---------------------------------------------------------------------
 Center     Atomic      Atomic             Coordinates (Angstroms)
 Number     Number       Type             X           Y           Z
 ---------------------------------------------------------------------
      1          6           0        0.000000    0.000000   -0.706250
      2          8           0       -0.000000   -0.000000    0.529687
 ---------------------------------------------------------------------
 Rotational constants (GHZ):           0.0000000          48.2548071          48.2548071
 Leave Link  202 at Mon Jun 12 20:10:20 2023, MaxMem=   104857600 cpu:               0.0 elap:               0.0
 (Enter /home/linux-pohl-v2/Escritorio/Gaussian/g16/l601.exe)
 Copying SCF densities to generalized density rwf, IOpCl= 0 IROHF=0.

 **********************************************************************

            Population analysis using the SCF Density.

 **********************************************************************

 Orbital symmetries:
       Occupied  (SG) (SG) (SG) (SG) (PI) (PI) (SG)
       Virtual   (PI) (PI) (SG) (PI) (PI) (SG) (SG) (SG) (PI) (PI)
                 (SG) (PI) (PI) (SG) (PI) (PI) (SG) (SG) (SG)
 The electronic state is 1-SG.
 Alpha  occ. eigenvalues --  -19.24691 -10.34018  -1.14873  -0.57891  -0.45643
 Alpha  occ. eigenvalues --   -0.45643  -0.38959
 Alpha virt. eigenvalues --   -0.07962  -0.07962   0.19587   0.38268   0.38268
 Alpha virt. eigenvalues --    0.42603   0.53418   0.73597   0.78539   0.78539
 Alpha virt. eigenvalues --    1.28323   2.50252   2.50252   2.65065   4.69718
 Alpha virt. eigenvalues --    4.69718   4.77643  23.11753  49.65928
          Condensed to atoms (all electrons):
               1          2
     1  C    5.434518   0.317688
     2  O    0.317688   7.930106
 Mulliken charges:
               1
     1  C    0.247794
     2  O   -0.247794
 Sum of Mulliken charges =  -0.00000
 Mulliken charges with hydrogens summed into heavy atoms:
               1
     1  C    0.247794
     2  O   -0.247794
 Electronic spatial extent (au):  <R**2>=             43.6633
 Charge=             -0.0000 electrons
 Dipole moment (field-independent basis, Debye):
    X=             -0.0000    Y=             -0.0000    Z=             -0.3857  Tot=              0.3857
 Quadrupole moment (field-independent basis, Debye-Ang):
   XX=            -10.3578   YY=            -10.3578   ZZ=            -12.8573
   XY=             -0.0000   XZ=              0.0000   YZ=             -0.0000
 Traceless Quadrupole moment (field-independent basis, Debye-Ang):
   XX=              0.8331   YY=              0.8331   ZZ=             -1.6663
   XY=             -0.0000   XZ=              0.0000   YZ=             -0.0000
 Octapole moment (field-independent basis, Debye-Ang**2):
  XXX=              0.0000  YYY=             -0.0000  ZZZ=              6.0524  XYY=              0.0000
  XXY=             -0.0000  XXZ=              1.1684  XZZ=              0.0000  YZZ=              0.0000
  YYZ=              1.1684  XYZ=             -0.0000
 Hexadecapole moment (field-independent basis, Debye-Ang**3):
 XXXX=             -9.0112 YYYY=             -9.0112 ZZZZ=            -40.5544 XXXY=             -0.0000
 XXXZ=             -0.0000 YYYX=             -0.0000 YYYZ=             -0.0000 ZZZX=             -0.0000
 ZZZY=             -0.0000 XXYY=             -3.0037 XXZZ=             -7.7128 YYZZ=             -7.7128
 XXYZ=             -0.0000 YYXZ=             -0.0000 ZZXY=             -0.0000
 N-N= 2.055162066268D+01 E-N=-3.071110266853D+02  KE= 1.127093875791D+02
 Symmetry A1   KE= 1.045621597686D+02
 Symmetry A2   KE= 0.000000000000D+00
 Symmetry B1   KE= 4.073613905290D+00
 Symmetry B2   KE= 4.073613905290D+00
 No NMR shielding tensors so no spin-rotation constants.
 Leave Link  601 at Mon Jun 12 20:10:20 2023, MaxMem=   104857600 cpu:               0.1 elap:               0.1
 (Enter /home/linux-pohl-v2/Escritorio/Gaussian/g16/l9999.exe)
 Electronic transition elements 
                 1             2             3 
      1  -0.113102D+03 -0.113102D+03 -0.113066D+03
      2   0.000000D+00  0.000000D+00  0.000000D+00
      3   0.000000D+00  0.000000D+00  0.000000D+00
      4   0.000000D+00  0.000000D+00  0.000000D+00
      5   0.000000D+00  0.000000D+00  0.000000D+00
      6   0.000000D+00  0.000000D+00  0.000000D+00
      7   0.000000D+00  0.000000D+00  0.000000D+00
      8   0.000000D+00  0.000000D+00  0.000000D+00
      9   0.000000D+00  0.000000D+00  0.000000D+00
     10   0.000000D+00  0.000000D+00  0.000000D+00
     11   0.000000D+00  0.000000D+00  0.000000D+00
     12   0.000000D+00  0.000000D+00  0.000000D+00
     13   0.000000D+00  0.000000D+00  0.000000D+00
     14   0.000000D+00  0.000000D+00  0.000000D+00
     15   0.000000D+00  0.000000D+00  0.000000D+00
     16   0.000000D+00  0.000000D+00  0.000000D+00
 1\1\GINC-RAMITA\FOpt\RB3LYP TD-FC\6-311G\C1O1\LINUX-POHL-V2\12-Jun-202
 3\0\\#P B3LYP/6-311G TD(Triplets) # Opt Geom=AllCheck\\Input file gene
 rated by gabedit...\\0,1\C,-2.2830961388,0.4997696174,-11.8485238998\O
 ,-1.0482528612,0.4872963826,-11.7980611002\\Version=EM64L-G16RevB.01\S
 tate=1-SG\HF=-113.2841518\RMSD=6.002e-09\RMSF=1.430e-06\Dipole=-0.6663
 668,0.006731,-0.0272316\PG=C*V [C*(C1O1)]\\@


 TRUTH, IN SCIENCE, CAN BE DEFINED AS THE WORKING HYPOTHESIS 
 BEST FITTED TO OPEN THE WAY TO THE NEXT BETTER ONE.

                              -- KONRAD LORENZ
 Job cpu time:       0 days  0 hours  0 minutes 29.0 seconds.
 Elapsed time:       0 days  0 hours  0 minutes 28.7 seconds.
 File lengths (MBytes):  RWF=      9 Int=      0 D2E=      0 Chk=      1 Scr=      1
 Normal termination of Gaussian 16 at Mon Jun 12 20:10:20 2023.
